CAS Number,Name,Formula,Type,UNIFAC,MW,SG6060,TB,Tc,Pc,Vc,OMEGA,CPA,CPB,CPC,CPD,CPE,HFORM25,GFORM25,GIBBSA,GIBBSB,GIBBSC
126-33-0,SULFOLANE,C4H8O2S      ,MISC,TMS ,120.1660004,1.2681,558.148,818.593,52.903,0.314,0.5863,-0.162708,0.00437224,-2.19092E-06,-3.2298E-11,2.13532E-13,-372.70,-259.00,-3.73E+02,4.25E-01,3.86E-05
126-98-7,M-acrylNitri,C4H5N        ,Misc,,67.09100342,0.8065,392.000,585.000,39.500,0.265,0.3900,0.32365,0.00383608,-1.77779E-06,1.83296E-10,0,98.00,164.00,-3.28E+01,-3.28E+01,-3.28E+01
126-99-8,Chloroprene,C4H5Cl       ,Misc,CH2=C CH2=CH Cl ,88.53600311,0.9628,332.549,525.000,42.600,0.273,0.1930,0.233731,0.00351896,-2.69783E-06,1.03836E-09,-1.64198E-13,73.00,114.84,7.43E+01,1.27E-01,3.06E-05
127-09-3,NACH3COO,C2H3NAO2     ,Misc,,82.03440094,1.8525,600.000,925.000,64.000,0.177,1.9160,0.0697028,0.00363374,-4.31481E-06,2.56981E-09,-6.0327E-13,-735.20,,-7.35E+02,2.74E-01,0.00E+00
127-17-3,PyruvicAcid,C3H4O3       ,Misc,CH3CO COOH ,88.06300354,1.2761,438.148,634.520,56.500,0.239,0.6695,0.0364184,0.0044152,-4.15155E-06,2.13297E-09,-4.54362E-13,-625.00,-545.00,-6.25E+02,2.63E-01,1.74E-05
127-18-4,Cl4-C2=,C2Cl4        ,Misc,C=C (Cl)4 ,165.8320007,1.6294,394.398,620.200,47.600,0.290,0.2432,0.27738,0.001360626,-1.38414E-06,5.05768E-10,0,-12.14,22.64,-1.22E+01,1.19E-01,-7.67E-06
127-19-5,diMAcetamide,C4H9NO       ,MISC,CH3 CON(CH3)2 ,87.12000275,0.9456,439.250,657.000,40.200,0.321,0.3635,-0.249547,0.00633684,-4.80945E-06,2.13957E-09,-4.23968E-13,-238.00,-88.50,-2.38E+02,6.69E-01,3.81E-05
127-91-3,B-Pinene,C10H16       ,OC,C (CH3)2 (CH2)3 (CH)2 CH2=C ,136.2350006,0.8740,439.190,642.000,27.600,0.506,0.3252,-1.04136,0.0096122,-7.62036E-06,3.04014E-09,-4.89316E-13,38.70,247.00,3.70E+01,6.87E-01,5.88E-05
128-37-0,26tBpCresol,C15H24O      ,Misc,(C)2 (CH3)6 (AC)2 (ACH)2 ACCH3 ACOH ,220.3540039,0.8963,538.150,720.000,21.100,0.757,0.6858,-0.399469,0.00775928,-6.4713E-06,2.80738E-09,-5.0578E-13,-341.00,-130.00,-3.42E+02,6.85E-01,8.14E-05
129-00-0,Pyrene,C16H10       ,AMR,(ACH)10 (AC)6 ,202.2550049,1.2752,667.950,936.000,26.100,0.630,0.5088,0.112625,0.00303276,1.01492E-06,-2.6733E-09,9.5417E-13,225.00,327.00,2.26E+02,3.27E-01,4.15E-05
1310-73-2,NaOH,NaOH         ,MISC,,39.99700165,1.7840,661.410,767.520,10.155,0.200,2.0000,0.63178,0.0031067,-5.26593E-06,3.98825E-09,-1.0922E-12,-32.77,,-3.28E+01,-3.28E+01,-3.28E+01
131-11-3,DMPhthalate,C10H10O4     ,Misc,(CH3)2 (AC)2 (ACH)4 (COO)2 ,194.1860046,1.1984,556.848,766.000,27.800,0.530,0.6473,-0.202508,0.00402776,-7.35336E-07,-2.21268E-09,1.2506E-12,-663.00,-526.00,-6.62E+02,4.39E-01,6.23E-05
131-16-8,DinC3Phthate,C14H18O4     ,Misc,(CH2)4 (CH3)2 (AC)2 (ACH)4 (COO)2 ,250.2949982,1.0824,590.650,768.000,19.900,0.789,0.8547,-0.47141,0.006368,-5.0643E-06,1.7914E-09,-1.4774E-13,-719.60,,-7.19E+02,8.18E-01,9.14E-05
13151-55-8,Ecycheptane,C9H18        ,N,CH3 (CH2)7 CH ,126.2360001,0.8170,436.483,654.260,29.385,0.472,0.2495,-0.1413,0.0057386,-2.13761E-06,0,0,-122.75,,-1.21E+02,8.05E-01,9.37E-05
132259-10-0,Air,O2/N2        ,Misc,,28.95000076,0.8804,78.670,132.450,37.740,0.091,0.0000,0.94146203,0.0001364,1.104E-07,-5.2E-11,0,0.00,,-3.28E+01,-3.28E+01,-3.28E+01
1323-65-5,DiC9ylPhenol,C24H42O      ,Misc,(CH2)14 (CH3)2 (ACH)3 (ACCH2)2 ACOH ,346.5969849,1.1790,735.000,902.000,12.400,1.230,1.1246,-0.086836,0.0062994,-0.000003297,8.6916E-11,3.4529E-13,-487.00,68.20,-4.87E+02,1.92E+00,1.50E-04
132-64-9,DiBenzoFuran,C12H8O       ,Misc,,168.1950073,1.1618,558.310,824.000,36.400,0.495,0.3988,-0.15038,0.0038958,-1.79145E-07,-2.06752E-09,8.4455E-13,55.28,199.00,5.53E+01,3.08E-01,3.62E-05
132-65-0,DiBZThiphene,C12H8S       ,Misc,,184.2610016,1.1259,604.609,897.000,38.600,0.512,0.3983,-0.734418,0.00683696,-5.77695E-06,1.68458E-09,7.90865E-14,252.50,,2.52E+02,2.28E-01,3.82E-05
13269-52-8,tr3-Hexene,C6H12        ,N,(CH3)2 (CH2)2 CH=CH ,84.16190338,0.6812,340.226,517.593,32.826,0.351,0.2270,0.1705,0.0056426,-2.00879E-06,0,0,-54.47,77.61,-5.69E+01,4.37E-01,4.35E-05
132739-31-2,DiC3=GtC4Etr,C10H22O3     ,Misc,CH2O CH-O OH (CH3)5 CH2 CH C ,190.2830048,0.9675,515.000,667.000,22.300,0.631,0.9966,-0.41634,0.0084058,-0.0000087,5.1828E-09,-1.3188E-12,-719.10,,-7.20E+02,1.15E+00,7.82E-05
13286-92-5,C1tC5Sulfide,C6H14S       ,Misc,C CH2 (CH3)3 CH3S ,118.2429962,0.8460,423.000,632.000,31.300,0.435,0.2836,-0.0081188,0.0056516,-3.4284E-06,8.3916E-10,-3.6123E-14,-137.40,,-1.37E+02,5.41E-01,5.52E-05
1333-74-0,Hydrogen,H2           ,GAS,,2.016000032,0.0699,20.555,33.440,13.155,0.052,-0.1201,13.83761,0.000599961,1.03768E-06,-3.88517E-10,3.8656E-14,0.00,0.00,0.00E+00,0.00E+00,0.00E+00
133-37-9,TartaricAcid,C4H6O6       ,Misc,(CH)2 (OH)2 (COOH)2 ,150.0879974,1.8032,660.000,828.000,51.800,0.305,2.0110,0.037474,0.0045582,-4.5279E-06,2.3156E-09,-4.7814E-13,-1097.00,-998.00,-1.16E+00,5.41E-01,1.74E-05
13360-61-7,1-Pentadecen,C15H30       ,N,CH3 (CH2)12 CH2=CH ,210.404007,0.7797,541.500,704.000,14.500,0.763,0.7119,0.11497,0.0056976,-2.01563E-06,-1.01232E-10,-5.92905E-22,-227.40,163.05,-2.34E+02,1.30E+00,9.75E-05
13373-97-2,1-EICOSANETHIOL,C20H42S,MISC,,314.612,0.0000,656.160,814.570,10.580,1.210,0.8090,0.001859433,0.006127548,-3.41373E-06,7.52323E-10,0,-417.56,145.52,-4.06E-01,1.78E+00,2.48E-07
13389-42-9,tr2-Octene,C8H16        ,N,(CH3)2 (CH2)4 CH=CH ,112.2080002,0.7237,398.148,580.372,27.661,0.464,0.3500,0.142898,0.0056766,-2.05436E-06,0,0,-94.58,92.10,-9.47E+01,6.25E-01,5.57E-05
13465-07-1,dihydrogen disulﬁde,H2S2,MISC,,66.148,,344.250,572.000,59.100,0.150,0.0000,0.422813932,0.001017192,7.99375E-07,-2.50245E-09,1.31721E-12,15.52,-1.67,,,
13475-78-0,2M-5Eheptane,C10H22       ,PN,(CH3)4 (CH2)4 (CH)2 ,142.2850037,0.7389,432.872,606.872,21.856,0.555,0.4476,0.16039,0.0056876,-2.06927E-06,0,0,-259.07,31.55,-2.64E+02,9.67E-01,7.41E-05
13475-79-1,24M3iPpentan,C10H22       ,PN,(CH3)6 (CH)4 ,142.2850037,0.7616,430.209,614.539,23.373,0.521,0.3636,0.066511,0.0057036,-2.09057E-06,0,0,-238.86,42.26,-2.64E+02,1.00E+00,6.87E-05
13475-81-5,2233-Mhexane,C10H22       ,PN,(CH3)6 (CH2)2 (C)2 ,142.2850037,0.7674,433.488,628.260,25.129,0.518,0.3820,0.050988,0.00570718,-2.09579E-06,0,0,-257.99,47.20,-2.64E+02,1.01E+00,6.37E-05
135-01-3,12-E-BZ,C10H14       ,A,(ACH)4 (ACCH2)2 (CH3)2 ,134.2200012,0.8838,456.610,668.000,28.800,0.502,0.3395,0.236599,0.00409,-2.13621E-07,-1.62486E-09,6.2205E-13,-15.73,141.08,-1.47E+01,5.16E-01,5.77E-05
13536-59-9,deuterium bromide,BrD,MISC,,81.918,,206.650,362.000,0.000,0.000,0.0000,0.37714329,-0.000235258,7.49009E-07,-7.27696E-10,2.53729E-13,-37.12,-53.79,,,
13536-94-2,deuterium sulﬁde,D2S,MISC,,36.094,,372.300,89.000,96.000,0.000,0.0000,0.988171441,-0.000908473,4.54697E-06,-5.22418E-09,2.00859E-12,-23.89,-35.39,,,
13550-49-7,trideuteroammonia,D3N,MISC,,20.049,,242.100,405.500,113.000,0.072,0.0000,1.696057659,-0.00134482,9.81557E-06,-1.09477E-09,3.98511E-12,-64.28,-31.69,,,
135-98-8,sec-BBenzene,C10H14       ,A,(CH3)2 CH2 ACCH (ACH)5 ,134.2220001,0.8661,446.483,664.539,29.509,0.478,0.2847,-0.317199,0.0057666,-2.17493E-06,0,0,-17.46,145.20,-1.78E+01,5.23E-01,5.91E-05
136-35-6,12DiPHTriAzn,C12H11N3     ,Misc,,197.2400055,0.9700,610.000,844.999,28.260,0.642,0.6227,-1.01238,0.00946312,-1.05446E-05,5.84284E-09,-1.2718E-12,331.60,0.00,-3.28E+01,-3.28E+01,-3.28E+01
136-60-7,nBBZoate,C11H14O2     ,Misc,(CH2)3 CH3 AC (ACH)5 COO ,178.2310028,1.0090,523.150,724.000,25.900,0.555,0.5754,-0.474679,0.0065733,-5.36958E-06,2.26381E-09,-3.76559E-13,-367.00,-175.00,-3.66E+02,6.21E-01,7.05E-05
13686-28-7,H2S2O3,H2S2O3       ,Misc,,114.1399994,1.8525,600.000,925.000,64.000,0.177,1.9160,0.0697028,0.00363374,-4.31481E-06,2.56981E-09,-6.0327E-13,-735.20,,-7.37E+02,2.83E-01,-6.05E-06
137-32-6,2-M-1-C4ol,C5H12O       ,OL,(CH3)2 (CH2)2 CH OH ,88.15000153,0.8223,401.898,571.000,45.600,0.330,0.6784,-0.10764,0.006444,-3.95151E-06,9.80432E-10,0,-302.69,-146.71,-3.02E+02,5.02E-01,5.20E-05
13845-23-3,dihydrogen trisulﬁde,H2S3,MISC,,98.214,,738.000,51.300,205.000,0.000,0.0000,0,0,0,0,0,66.23,298.15,,,
13845-24-4,dihydrogen pentasulﬁde,H2S5,MISC,,162.346,,930.000,38.900,315.000,0.000,0.0000,0,0,0,0,0,0.00,0.00,,,
13845-25-5,dihydrogen tetrasulﬁde,H2S4,MISC,,130.28,,855.000,43.700,260.000,0.000,0.0000,0,0,0,0,0,82.66,298.15,,,
13952-84-6,sec-Btylamin,C4H11N       ,AMINE,(CH3)2 CH2 CH2NH ,73.13800049,0.7299,336.148,514.299,40.000,0.310,0.2815,0.099315,0.0059696,-2.98647E-06,5.05064E-10,0,-104.17,40.63,-1.07E+02,4.83E-01,3.82E-05
13983-20-5,deuterium hydride,DH,MISC,,3.022,,22.130,35.900,14.800,0.063,-0.1760,10.71025877,-0.009651063,2.9795E-05,-3.6783E-08,1.59567E-11,0.32,-1.46,,,
140-10-3,CinnamicAcid,C9H8O2       ,Misc,CH=CH AC (ACH)5 COOH ,148.1609955,1.1635,573.150,797.000,35.400,0.431,0.7121,-0.27255,0.0064378,-6.4977E-06,3.47752E-09,-7.5055E-13,-224.60,,-2.25E+02,3.46E-01,2.03E-05
140-11-4,BZ-Acetate,C9H10O2      ,Misc,(ACH)5 ACCH2 CH3COO ,150.177002,1.0554,486.648,699.000,31.800,0.449,0.4699,-0.461799,0.00667618,-5.61246E-06,1.91803E-09,0,-309.15,,-3.09E+02,4.45E-01,4.09E-05
140-29-4,PHAcetNitril,C8H7N        ,Misc,AC (ACH)5 CH2CN ,117.1500015,1.0199,506.648,732.000,34.600,0.391,0.4715,-0.206526,0.00541524,-4.07448E-06,1.5274E-09,-2.25069E-13,216.10,,2.17E+02,2.25E-01,3.18E-05
140-31-8,nAminoEPipez,C6H15N3      ,Misc,(CH2)3 CH2NH2 CH2NH CH2N ,129.2050018,0.9847,493.549,708.000,38.500,0.407,0.5572,-0.134585,0.00609804,-3.66387E-06,9.2144E-10,-4.92205E-14,25.10,279.00,2.45E+01,8.36E-01,6.00E-05
140-66-9,ptC8Phenol,C14H22O      ,Misc,(C)2 CH2 (CH3)5 AC (ACH)4 ACOH ,206.3280029,0.9253,563.598,765.000,22.800,0.704,0.6313,-0.504021,0.0082393,-7.28967E-06,3.37379E-09,-6.4532E-13,-291.00,22.70,-2.92E+02,1.03E+00,7.19E-05
140-88-5,E-Acrylate,C5H8O2       ,Misc,CH3 CH2 CH2=CH COO ,100.1149979,0.9272,372.648,553.000,36.800,0.323,0.3718,-0.144297,0.0057652,-4.83015E-06,2.30037E-09,-5.215E-13,-341.00,-245.45,-3.41E+02,3.38E-01,3.35E-05
14104-45-1,deuterium iodide,DI,MISC,,128.919,,237.520,421.800,0.000,0.000,0.0000,0.241257487,-0.000184571,6.44901E-07,-6.77791E-10,2.46352E-13,26.23,1.84,,,
141-05-9,DiEMaleate,C8H12O4      ,Misc,(CH2)2 (CH3)2 CH=CH (COO)2 ,172.1790009,0.9699,498.148,680.000,26.100,0.508,0.6658,-0.522537,0.00898888,-1.17895E-05,7.86972E-09,-1.99181E-12,-740.00,-544.00,-7.41E+02,6.55E-01,2.33E-05
141-32-2,n-B-Acrylate,C7H12O2      ,Misc,CH2COO CH2=CH (CH2)2 CH3 ,128.1710052,0.9044,421.000,597.000,26.300,0.428,0.4381,0.249159,0.00482216,-2.83231E-06,7.59488E-10,-1.19518E-13,-395.00,-233.00,-3.95E+02,5.33E-01,3.62E-05
141-43-5,MEAmine,C2H7NO       ,MISC,CH2 OH CH2NH2 ,61.08390045,1.0179,443.497,612.000,44.500,0.196,0.7966,0.1525,0.00492928,-2.97818E-06,7.6272E-10,0,-201.69,-106.88,-2.01E+02,3.15E-01,3.31E-05
141-53-7,NAHCOO,NACHO2       ,Misc,,68.00749969,1.8525,600.000,925.000,64.000,0.177,1.9160,0.0697028,0.00363374,-4.31481E-06,2.56981E-09,-6.0327E-13,-735.20,,-7.35E+02,2.74E-01,0.00E+00
141-59-3,tOctylMercap,C8H18S       ,Misc,C CH2 (CH3)5 CSH ,146.2960052,0.8498,429.000,627.000,25.900,0.529,0.3069,-0.176589,0.00675652,-4.77921E-06,1.52458E-09,-1.59757E-13,-205.00,-28.50,-2.05E+02,7.65E-01,6.39E-05
141-62-8,10aC1-4aSilo,C10H30O3Si4  ,Misc,(CH3)10 SI (SIO)3 ,310.6879883,0.8587,467.500,599.400,12.270,1.157,0.6726,-0.05124,0.004944,-2.83173E-06,5.7688E-10,8.7615E-15,-1934.60,,,1.64E+00,0.00E+00
141-78-6,E-Acetate,C4H8O2       ,ACID,CH3 CH2 CH3COO ,88.10700226,0.9057,350.299,523.200,38.200,0.286,0.3620,0.0821701,0.0046247,-2.37591E-06,3.24241E-10,0,-443.18,-328.00,-4.45E+02,3.84E-01,2.96E-05
141-79-7,Mesityloxide,C6H10O       ,Misc,CH3CO CH=C (CH3)2 ,98.14450073,0.8614,402.950,600.000,34.100,0.355,0.3267,0.316479,0.0048667,-2.94276E-06,7.96464E-10,0,-195.55,-78.78,-1.95E+02,4.52E-01,3.27E-05
141-82-2,MalonicAcid,C3H4O4       ,Misc,CH2 COOH ,104.0579987,1.4096,580.000,805.000,56.400,0.258,0.9418,-0.237562,0.00543726,-5.91102E-06,3.3488E-09,-7.66025E-13,-812.00,,-8.12E+02,3.15E-01,1.70E-05
141-93-5,13-E-BZ,C10H14       ,A,(ACH)4 (ACCH2)2 (CH3)2 ,134.2200012,0.8644,454.299,663.598,29.300,0.488,0.3590,-0.261137,0.00642378,-4.08768E-06,1.02137E-09,3.06058E-21,-21.84,136.69,-2.51E+01,5.26E-01,4.99E-05
141-97-9,EAcetAcetate,C6H10O3      ,Misc,CH3 CH2 CH3CO CH2COO ,130.1430054,1.0329,453.950,643.000,32.700,0.391,0.5607,-0.335596,0.0065518,-6.34113E-06,3.38913E-09,-7.531E-13,-560.00,-408.00,-5.60E+02,4.97E-01,4.37E-05
142-28-9,13-ClC3,C3H6Cl2      ,HAL,(CH2Cl)2 CH2 ,112.9860001,1.1943,393.600,602.700,40.100,0.301,0.2880,0.157367,0.00298554,-2.03088E-06,5.73204E-10,3.53251E-21,-161.50,-82.59,-1.63E+02,2.63E-01,2.00E-05
142-29-0,Cyclopentene,C5H8         ,OD,(CH2)3 CH=CH ,68.11840057,0.7772,317.380,507.000,48.020,0.245,0.1959,0.166132,0.00276046,4.41627E-06,-6.19356E-09,2.09274E-12,33.10,110.90,3.36E+01,2.46E-01,4.14E-05
142-62-1,n-C6oicAcid,C6H12O2      ,ACID,CH3 (CH2)4 COOH ,116.1600037,0.9293,478.850,667.000,33.500,0.389,0.6701,0.0856283,0.00525124,-3.13644E-06,7.2266E-10,0,-513.59,-340.00,-5.13E+02,5.53E-01,4.69E-05
142-82-5,n-Heptane,C7H16        ,PN,(CH3)2 (CH2)5 ,100.2050018,0.6875,371.579,540.158,27.368,0.426,0.3498,-0.0968949,0.006946,-3.9906E-06,1.02306E-09,-6.8863E-14,-187.89,8.20,-1.92E+02,6.51E-01,5.64E-05
142-84-7,diPropylamin,C6H15N       ,Misc,(CH3)2 (CH2)3 CH2NH ,101.1930008,0.7460,382.500,555.799,29.800,0.416,0.4710,0.063878,0.0062229,-3.35226E-06,6.99296E-10,0,-113.70,86.80,-1.13E+02,6.61E-01,5.95E-05
14290-92-7,C2tC4Sulfide,C6H14S       ,Misc,C (CH3)4 CH2S ,118.2429962,0.8253,393.560,588.000,31.300,0.412,0.2861,0.036422,0.005266,-2.41302E-06,-5.5384E-11,2.46395E-13,-147.70,,-1.48E+02,5.50E-01,5.33E-05
142-92-7,nHexylC2oate,C8H16O2      ,Misc,CH3COO (CH2)5 CH3 ,144.2140045,0.8773,444.648,618.000,25.400,0.494,0.5396,-0.366954,0.00764844,-7.15602E-06,3.763E-09,-8.2433E-13,-526.30,-295.30,-5.26E+02,7.55E-01,6.39E-05
142-96-1,diB-Ether,C8H18O       ,Misc,(CH3)2 (CH2)5 CH2O ,130.2310028,0.7729,413.398,570.000,25.300,0.490,0.5020,0.0465153,0.00593878,-3.13866E-06,6.21204E-10,0,-334.09,-88.53,-3.38E+02,8.15E-01,6.43E-05
143-07-7,1C12oicAcid,C12H24O2     ,Misc,COOH (CH2)10 CH3 ,200.3200073,0.8942,571.848,734.000,19.300,0.705,0.9671,-0.0221281,0.00617994,-4.10934E-06,1.38584E-09,-1.9512E-13,-642.00,-297.00,-6.42E+02,1.13E+00,9.08E-05
143-08-8,1-Nonanol,C9H20O       ,Misc,CH3 (CH2)8 OH ,144.2570038,0.8314,486.700,670.000,26.300,0.546,0.5936,0.00887844,0.006116,-3.32334E-06,6.79836E-10,0,-387.19,-111.92,-3.92E+02,8.95E-01,6.92E-05
143-10-2,1Decanethiol,C10H22S      ,MISC,CH2SH CH3 (CH2)8 ,174.3509979,0.8481,512.400,702.200,22.400,0.650,0.5550,0.0613693,0.00551744,-2.88154E-06,5.91124E-10,1.03119E-20,-211.46,61.42,-2.04E+02,8.48E-01,1.44E-04
143-13-5,nNonyAcetate,C11H22O2     ,Misc,CH3COO (CH2)8 CH3 ,186.2940063,0.8701,497.100,661.000,19.900,0.653,0.7159,-0.367748,0.00781802,-7.03299E-06,3.49843E-09,-7.13075E-13,-590.40,,-5.90E+02,1.03E+00,8.51E-05
143-22-6,Butoxy3Glycl,C10H22O4     ,Misc,OH (CH2)6 (CH2O)3 CH3 ,206.279007,0.9935,551.150,700.674,21.897,0.669,1.1080,0.366435,0.00386954,-1.05486E-06,-2.26873E-10,5.53155E-20,-798.61,,-7.98E+02,1.27E+00,0.00E+00
143-24-8,TetraEGMEthr,C10H22O5     ,Misc,(CH2)5 (CH2O)3 (CH3O)2 ,222.2810059,1.0156,548.950,705.000,19.400,0.674,0.9652,-0.303186,0.00679998,-5.85603E-06,2.74346E-09,-5.55625E-13,-884.00,-503.00,-8.84E+02,1.25E+00,8.91E-05
144-19-4,224M13C3Diol,C8H18O2      ,Misc,(OH)2 (CH3)4 CH2 (CH)2 C ,146.2299957,0.9020,505.150,680.000,29.900,0.503,0.8406,-0.26573,0.0073712,-5.8407E-06,2.36356E-09,-3.7168E-13,-412.85,,-4.13E+02,1.05E+00,6.60E-05
144-62-7,Oxalic_Acid,C2H2O4       ,Misc,(COOH)2 ,90.03549957,1.7048,569.000,804.000,70.200,0.205,0.9176,-0.091763,0.00167636,-2.17053E-07,-1.8004E-09,1.1581E-12,-723.70,-661.00,-7.20E+02,1.77E-01,6.52E-05
1446-61-3,DehydroC2-Am,C20H31N      ,Misc,,285.4729919,0.9871,660.000,863.000,17.000,1.020,0.7415,-0.47859,0.0083606,-7.4073E-06,3.49672E-09,-6.964E-13,-123.00,387.00,-1.25E+02,1.69E+00,9.09E-05
1454-84-8,1C19ol,C19H40O      ,Misc,CH3 (CH2)18 OH ,284.526001,0.8174,618.150,784.000,13.000,1.070,0.8975,0.120398,0.0054817,-1.1596E-06,-1.77272E-09,8.4981E-13,-584.50,-27.78,-5.84E+02,1.82E+00,1.52E-04
1454-85-9,1-Hptdecanol,C17H36O      ,Misc,CH3 (CH2)16 OH ,256.4710083,0.8199,597.000,735.000,13.000,0.102,1.1185,-0.0304015,0.0064493,-3.64602E-06,7.97468E-10,0,-546.28,-44.64,-5.55E+02,1.67E+00,1.17E-04
1455-21-6,1-C9-Thiol,C9H20S       ,MISC,CH2SH CH3 (CH2)7 ,160.3200073,0.8483,492.000,686.400,24.600,0.594,0.5120,0.0751496,0.0053897,-2.76951E-06,5.56916E-10,8.2916E-21,-190.61,53.01,-1.84E+02,7.55E-01,1.34E-04
1459-09-2,n-HexdecylBZ,C22H38       ,A,(ACH)5 ACCH2 (CH2)14 CH3 ,302.5190125,0.8594,650.927,808.150,12.893,1.087,1.0299,-0.16862,0.00665996,-3.98025E-06,9.12584E-10,7.88725E-20,-260.88,245.43,-2.71E+02,1.69E+00,1.22E-04
1459-10-5,n-TtrdecylBZ,C20H34       ,A,(ACH)5 ACCH2 (CH2)12 CH3 ,274.4700012,0.8572,627.200,792.038,14.100,1.110,0.8690,-0.17923,0.00664842,-3.99066E-06,9.19148E-10,7.1883E-20,-219.60,226.61,-2.28E+02,1.50E+00,1.10E-04
1459-93-4,DMIPhthalate,C10H10O4     ,Misc,(CH3)2 (AC)2 (ACH)4 (COO)2 ,194.1860046,1.2153,555.150,764.000,27.900,0.539,0.6247,-0.138396,0.00342996,5.68869E-07,-3.36836E-09,1.61988E-12,-665.00,,-6.64E+02,5.40E-01,6.69E-05
14676-29-0,2M-3Eheptane,C10H22       ,PN,(CH3)4 (CH2)4 (CH)2 ,142.2850037,0.7471,434.372,610.927,22.250,0.544,0.4191,0.132,0.0056936,-2.07713E-06,0,0,-254.35,34.69,-2.59E+02,9.60E-01,7.35E-05
14686-13-6,trans2C7=,C7H14        ,N,(CH3)2 CH=CH (CH2)3 ,98.1882019,0.7057,371.100,543.000,28.500,0.406,0.3372,0.245237,0.00452566,3.28773E-07,-2.43188E-09,8.9442E-13,-74.60,83.80,-7.38E+01,5.10E-01,6.04E-05
14686-14-7,trans3C7=,C7H14        ,N,(CH3)2 CH=CH (CH2)3 ,98.1882019,0.7025,368.820,540.000,28.500,0.406,0.3341,0.0187976,0.00570534,-1.79577E-06,-8.03744E-10,4.40745E-13,-73.90,84.20,-7.32E+01,5.10E-01,6.00E-05
14720-74-2,224-Mheptane,C10H22       ,PN,(CH3)5 (CH2)3 CH C ,142.2850037,0.7308,421.428,594.539,21.649,0.552,0.4104,0.166898,0.0056818,-2.06144E-06,0,0,-264.68,31.00,-2.70E+02,9.86E-01,6.87E-05
14752-75-1,n-C7C10==BZ,C23H40       ,MISC,(CH2)15 CH3 (ACH)5 ACCH2 ,316.5710144,0.8587,662.150,826.000,12.100,1.200,0.9195,-0.082501,0.0062464,-3.0702E-06,5.8092E-11,2.521E-13,-281.83,,-2.81E+02,1.75E+00,1.52E-04
1476-11-5,14Clcis2C4=,C4H6Cl2      ,Misc,(CH2Cl)2 CH=CH ,124.9970016,1.2001,425.648,640.000,37.800,0.343,0.3306,0.00999719,0.0039836,-3.49062E-06,1.71286E-09,-3.46512E-13,78.20,108.50,7.88E+01,8.89E-02,3.56E-05
14762-55-1,helium-3,He,MISC,,3.017,,3.330,3.310,1.140,0.073,-0.4800,6.889294001,0,0,0,0,0.00,0.00,,,
148-24-3,8HyQuinoline,C9H7NO       ,Misc,(ACH)3 ACOH C5H3N ,145.1600037,1.1724,540.000,788.000,43.600,0.414,0.5223,-0.45042,0.00682274,-6.70854E-06,3.33811E-09,-6.71365E-13,21.50,114.00,2.08E+01,3.07E-01,1.79E-05
14850-22-7,cis-3-Octene,C8H16        ,N,(CH2)4 (CH3)2 CH=CH ,112.2149963,0.7257,396.050,569.000,25.900,0.461,0.3800,-0.29145,0.0073032,-4.8711E-06,1.6748E-09,-2.36305E-13,-89.50,,-8.88E+01,6.04E-01,6.99E-05
14850-23-8,tr4-Octene,C8H16        ,N,(CH3)2 (CH2)4 CH=CH ,112.2080002,0.7179,395.410,577.593,27.358,0.464,0.3273,0.1595,0.00567218,-2.04836E-06,0,0,-91.23,94.00,-9.14E+01,6.15E-01,5.41E-05
14919-01-8,tr3-Octene,C8H16        ,N,(CH3)2 (CH2)4 CH=CH ,112.2080002,0.7190,396.427,578.148,27.461,0.464,0.3360,0.157597,0.005673,-2.0495E-06,0,0,-91.23,92.20,-9.14E+01,6.15E-01,5.42E-05
149-30-4,2MerBZThiazl,C7H5NS2      ,Misc,,167.2550049,1.3264,496.150,749.000,40.000,0.406,0.3321,-0.19003,0.0044548,-4.1217E-06,1.91884E-09,-3.5775E-13,-32.77,,-3.28E+01,-3.28E+01,-3.28E+01
149-32-6,Erythritol,C4H10O4      ,Misc,(CH2)2 (CH)2 (OH)4 ,122.1200027,1.0242,603.150,750.684,67.407,0.324,2.1934,0.139632,0.00435304,-2.63509E-06,6.10856E-10,3.78212E-20,-745.36,,-7.45E+02,5.90E-01,0.00E+00
14940-65-9,tritium oxide,OT2,MISC,,22.032,,641.720,214.100,56.000,0.000,0.0000,0,0,0,0,0,-249.37,-226.24,,,
149-57-5,2E_C6oicAcid,C8H16O2      ,Misc,CH (CH2)4 (CH3)2 COOH ,144.2140045,0.9105,501.150,673.600,27.800,0.528,0.8215,-0.34685,0.007319,-6.3162E-06,3.03072E-09,-6.185E-13,-559.54,,-5.59E+02,7.62E-01,6.51E-05