CAS Number,Name,Formula,Type,UNIFAC,MW,SG6060,TB,Tc,Pc,Vc,OMEGA,CPA,CPB,CPC,CPD,CPE,HFORM25,GFORM25,GIBBSA,GIBBSB,GIBBSC
7647-01-0,HCl,HCl          ,MISC,,36.46080017,0.8711,188.100,324.700,83.000,0.081,0.1330,0.841536,-0.000197625,3.41946E-07,-1.06978E-10,0,-92.36,-95.19,-9.22E+01,-1.12E-02,2.70E-06
7647-14-5,NACL,NACL         ,Misc,,58.44250107,1.8525,600.000,925.000,64.000,0.177,1.9160,0.0697028,0.00363374,-4.31481E-06,2.56981E-09,-6.0327E-13,-735.20,,-7.35E+02,2.74E-01,0.00E+00
764-93-2,1-Decyne,C10H18       ,N,CH-=C (CH2)7 CH3 ,138.2400055,0.7695,447.200,632.500,24.300,0.558,0.4260,0.0483072,0.00617034,-3.62496E-06,8.52704E-10,8.40725E-21,41.21,,3.75E+01,7.01E-01,5.75E-05
765-03-7,1-DODECYNE,C12H22,MISC,,166.306,0.7750,488.160,668.160,20.250,0.670,0.5120,0.024238452,0.00629863,-3.71592E-06,8.79042E-10,0,-0.04,268.99,-4.72E-03,8.95E-01,6.98E-08
765-13-9,1-Pentadecyn,C15H28       ,MISC,CH-=C (CH2)12 CH3 ,208.3890076,0.7963,541.200,711.400,15.900,0.837,0.6280,0.00118047,0.00642014,-3.79269E-06,8.9576E-10,9.82595E-21,-61.82,294.26,-6.80E+01,1.19E+00,8.79E-05
765-27-5,1-Eicosyne,C20H38       ,MISC,CH-=C (CH2)17 CH3 ,278.519989,0.7970,613.200,769.799,11.200,1.117,0.7500,-0.0184784,0.0064757,-3.80586E-06,8.856E-10,3.22684E-21,-164.89,336.31,-1.74E+02,1.66E+00,1.18E-04
766-07-4,CC6Peroxide,C6H12O2      ,Misc,(CH2)5 OH CH-O ,116.1600037,1.0227,490.000,685.000,42.100,0.356,0.7571,-0.650386,0.00888586,-1.04647E-05,8.35504E-09,-3.03035E-12,-220.00,-28.30,-2.21E+02,6.34E-01,4.29E-05
7664-38-2,H3PO4,H3O4P        ,Misc,,97.99520111,1.8525,680.000,1030.000,50700.000,0.340,1.9160,0.0697028,0.00363374,-4.31481E-06,2.56981E-09,-6.0327E-13,-1195000.06,,,,0.00E+00
7664-39-3,HF,HF           ,MISC,,20.00600052,0.9851,293.000,461.000,64.700,0.069,0.3290,1.45322,3.30664E-05,-1.01636E-07,1.25244E-10,0,-271.29,-275.40,-2.73E+02,-5.23E-03,0.00E+00
7664-41-7,Ammonia,NH3          ,Misc,,17.03000069,0.6166,239.699,405.549,112.769,0.080,0.2550,1.9937,-0.00106532,6.1845E-06,-5.35424E-09,1.52663E-12,-45.71,-16.41,-3.28E+01,-3.28E+01,-3.28E+01
7664-93-9,H2SO4,H2SO4        ,MISC,,98.08000183,1.8525,600.000,925.000,64.000,0.177,1.9160,0.0697028,0.00363374,-4.31481E-06,2.56981E-09,-6.0327E-13,-735.20,,-7.36E+02,2.77E-01,4.18E-06
7667-59-6,1tr2tr4-MCC6,C9H18        ,N,(CH3)3 (CH2)3 (CH)3 ,126.2360001,0.7754,414.388,613.705,26.751,0.468,0.2619,-0.0261599,0.0057128,-2.10287E-06,0,0,-133.31,,-1.32E+02,8.30E-01,8.11E-05
766-90-5,cis-C3=BZ,C9H10        ,AU,(ACH)5 AC CH=CH CH3 ,118.1800003,0.9133,443.200,664.598,34.600,0.412,0.3160,-0.205889,0.00586278,-3.83133E-06,9.98972E-10,6.38035E-21,121.34,216.90,1.19E+02,3.15E-01,3.71E-05
767-59-9,1MIndene,C10H10       ,AUC,(ACH)4 (AC)2 CH CH=CH CH3 ,130.1880035,0.9766,471.648,702.000,34.600,0.440,0.3357,-0.368429,0.00717698,-6.38877E-06,2.97021E-09,-5.6982E-13,120.00,228.00,1.20E+02,3.54E-01,2.91E-05
767-99-7,trn2PHC4=2,C10H12       ,OC,(CH3)2 CH=C AC (ACH)5 ,132.2050018,0.9003,447.148,654.000,30.100,0.464,0.3610,-0.321492,0.00683852,-5.70051E-06,2.62118E-09,-5.16505E-13,79.50,,8.02E+01,4.14E-01,4.90E-05
768-00-3,cis2PHC4=2,C10H12       ,OC,(CH3)2 CH=C AC (ACH)5 ,132.2050018,0.9275,467.850,685.000,30.100,0.470,0.3564,-0.381238,0.00688836,-5.61357E-06,2.48492E-09,-4.66223E-13,83.70,,8.44E+01,4.12E-01,5.18E-05
7688-21-3,cis2-hexene,C6H12        ,N,(CH3)2 (CH2)2 CH=CH ,84.16190338,0.6912,342.032,517.593,32.826,0.351,0.2560,0.134,0.005651,-2.02001E-06,0,0,-52.38,76.23,-5.50E+01,4.25E-01,4.68E-05
7697-37-2,HNO3,HNO3         ,MISC,,63.01300049,1.5251,356.148,520.000,68.901,0.145,0.7144,0.221957,0.00271954,-2.17158E-06,7.68204E-10,-8.95645E-14,-134.30,,-1.35E+02,2.04E-01,2.89E-06
7698-05-7,deuterium chloride,ClD,MISC,,37.467,,188.430,323.500,0.000,0.000,0.0000,0.8691899,-0.000879841,2.67392E-06,-2.93576E-09,1.15611E-12,-93.33,-95.93,,,
7704-34-9,S_Liq_150,S            ,MISC,,32.06600189,1.8117,717.760,1310.930,117.534,0.080,0.0739,0.79941,-0.000329328,3.34692E-07,-1.53682E-10,2.56473E-14,1.08,236.50,-3.28E+01,-3.28E+01,-3.28E+01
7705-08-0,FeCl3,FeCl3        ,Misc,,162.2100067,2.8021,605.000,1231.000,27.962,0.483,-0.3161,0.42386,0.000282714,-3.44019E-07,1.77425E-10,-3.12871E-14,-399.49,,-3.99E+02,-3.13E+00,0.00E+00
771-56-2,23456-FBZCH,C7H3F5       ,Misc,ACCH3 (ACF)5 ,182.0910034,1.4233,390.700,566.500,31.300,0.384,0.4150,-0.0216935,0.00353104,-2.0187E-06,6.68832E-10,0,-989.18,12.99,-9.93E+02,3.12E-01,-1.83E-05
7722-84-1,H2O2,H2O2         ,MISC,(OH)2 ,34.01490021,1.4549,423.350,730.150,216.840,0.078,0.3595,1.05811,0.000276352,1.89043E-06,-2.01123E-09,6.0495E-13,-136.00,,-1.39E+02,1.11E-01,0.00E+00
7726-95-6,Bromine,Br2          ,GAS,,159.8070068,3.3612,331.898,588.000,103.000,0.127,0.1080,0.211879,7.03966E-05,-7.45887E-08,2.83716E-11,4.52606E-23,30.93,3.13,3.09E+01,-9.32E-02,6.22E-10
7727-37-9,Nitrogen,N2           ,GAS,,28.01300049,0.8071,77.350,126.194,33.944,0.090,0.0400,0.9827466,0.000194285,-1.24738E-09,-1.46219E-11,2.02507E-15,0.00,0.00,0.00E+00,0.00E+00,0.00E+00
7731-28-4,ci4-M-CC6ol,C7H14O       ,Misc,CH3 (CH2)4 (CH)2 OH ,114.1880035,0.9154,444.148,622.000,37.700,0.414,0.6854,-0.42663,0.00683018,-3.49155E-06,5.14992E-10,0,-347.49,,-3.48E+02,1.06E+00,5.49E-05
7731-29-5,tr4-M-CC6ol,C7H14O       ,Misc,CH3 (CH2)4 (CH)2 OH ,114.1880035,0.9126,444.148,622.000,37.700,0.414,0.6913,-0.42663,0.00683018,-3.49155E-06,5.14992E-10,0,-367.19,,-3.68E+02,1.12E+00,5.49E-05
7732-18-5,H2O,H2O          ,Misc,H2O ,18.01510048,0.9989,373.148,647.299,221.200,0.057,0.3440,1.9145,-0.00079148,2.62862E-06,-1.98022E-09,5.1923E-13,-241.81,-228.42,-2.41E+02,4.34E-02,4.96E-06
7746-09-5,sulfur dioxide,O2S,MISC,,64.065,,263.130,430.800,78.840,0.122,0.0000,0.573213736,-0.000289916,3.04191E-06,-4.24492E-09,1.80776E-12,-296.81,-300.14,,,
7746-11-9,sulfur trioxide,O3S,MISC,,80.064,,317.900,490.900,82.100,0.127,0.0000,0.35576244,0.000672792,1.75597E-06,-3.48494E-09,1.65109E-12,-395.72,-370.93,,,
77-47-4,C6aCl-CC5di=,C5Cl6        ,Misc,(C=C)2 CCl2 (Cl)4 ,272.7709961,1.7181,512.150,746.000,30.100,0.526,0.3834,0.16007,0.0028452,-5.4618E-06,4.998E-09,-1.7058E-12,-102.00,-30.00,-9.73E+01,2.08E-01,5.86E-05
7757-82-6,NA2SO4,NA2SO4       ,Misc,,142.0429993,1.8525,600.000,925.000,64.000,0.177,1.9160,0.0697028,0.00363374,-4.31481E-06,2.56981E-09,-6.0327E-13,-735.20,,-7.35E+02,2.74E-01,0.00E+00
7772-98-7,NA2S2O3,NA2S2O3      ,Misc,,158.1100006,1.8525,600.000,925.000,64.000,0.177,1.9160,0.0697028,0.00363374,-4.31481E-06,2.56981E-09,-6.0327E-13,-735.20,,-7.35E+02,2.74E-01,0.00E+00
7773-28-4,cis-4-METHYLCYCLOHEXANOL,C7H140,MISC,,114.188,0.9130,444.150,622.000,37.900,0.414,0.6580,-0.414080289,0.006743178,-3.29527E-06,3.22442E-10,6.8079E-14,-347.50,-145.75,-3.53E-01,6.80E-01,4.46E-08
7773-29-5,trans-4-METHYLCYCLOHEXANOL,C7H140,MISC,,114.188,0.9080,444.150,622.000,37.900,0.414,0.6910,-0.414080289,0.006743178,-3.29527E-06,3.22442E-10,6.8079E-14,-367.20,-165.45,-3.73E-01,6.80E-01,4.46E-08
77-73-6,DicycloC5==,C10H12       ,OC,(CH=CH)2 (CH2)2 (CH)4 ,132.2050018,0.9712,442.997,650.000,30.599,0.445,0.2851,-1.12907,0.0104249,-1.0621E-05,5.511E-09,-1.12241E-12,196.10,375.00,1.95E+02,5.92E-01,3.90E-05
77-78-1,DIMETHYL SULFATE ,C2H604S,MISC,,126.133,1.3220,461.950,758.000,51.600,0.293,0.0890,0.188689716,0.00300635,-1.61615E-06,1.97355E-10,6.46889E-14,-687.00,-535.00,,,
7782-39-0,Deuterium-eq,D2           ,MISC,,4.032000065,0.1619,23.600,38.200,16.500,0.060,-0.1370,7.50248,-0.001640618,2.90177E-06,-9.13676E-10,9.8332E-24,0.00,0.00,0.00E+00,0.00E+00,0.00E+00
7782-41-4,F2,F2           ,GAS,,37.99700165,1.5014,85.000,144.300,52.200,0.066,0.0540,0.611268,0.000963044,-9.51489E-07,3.17073E-10,0,0.00,,0.00E+00,0.00E+00,0.00E+00
7782-44-7,Oxygen,O2           ,GAS,,32,1.1387,90.200,154.770,50.800,0.073,0.0190,0.813132,0.00033116,2.046E-08,-9.324E-11,1.8822E-14,0.00,0.00,0.00E+00,0.00E+00,0.00E+00
7782-50-5,Cl2,Cl2          ,GAS,,70.90570068,1.5628,239.199,416.898,77.400,0.124,0.0900,0.38005,0.00047756,-0.000000546,2.18315E-10,0,0.00,0.00,0.00E+00,0.00E+00,0.00E+00
7783-06-4,H2S,H2S          ,MISC,,34.08,0.7891,213.498,373.600,90.078,0.098,0.0810,0.9985,-0.0003686,1.67123E-06,-1.27082E-09,3.18313E-13,-20.18,,-2.34E+01,-4.68E-02,1.18E-05
7783-41-7,oxygen diﬂuoride,F2O,MISC,,53.996,,128.380,215.200,49.500,0.098,0.0000,0.529209904,0.000851016,7.72951E-07,-2.23725E-09,1.13171E-12,24.70,42.01,,,
7783-60-0,sulfur tetraﬂuoride,F4S,MISC,,108.06,,233.150,364.000,43.300,0.146,0.2580,-0.0621665,0.003941956,-6.34822E-06,4.87407E-09,-1.45183E-12,-774.04,-731.01,,,
7783-61-1,TetraFSilane,F4Si         ,MISC,,104.0790024,12.5752,251.230,259.000,37.200,0.202,0.3858,0.17924,0.0026016,-3.3717E-06,2.03988E-09,-4.6858E-13,-1614.94,,,1.42E-01,0.00E+00
7784-34-1,AsCl3,AsCl3        ,Misc,,181.279007,2.1791,403.148,519.400,49.800,0.252,0.5670,0.421861,0.000060595,-2.58328E-08,2.15388E-19,-5.94805E-23,-32.77,,-3.28E+01,-3.28E+01,-3.28E+01
7784-42-1,Arsine,AsH3         ,MISC,,77.94490051,1.3582,210.669,372.000,65.500,0.098,0.0058,0.402898,1.59714E-05,1.55469E-06,-1.70679E-09,5.28085E-13,66.43,,6.64E+01,8.44E-03,0.00E+00
7789-20-0,D2O,D2O          ,Misc,H2O ,20.03100014,1.1091,374.549,643.890,219.410,0.056,0.3677,1.66127,-0.00022612,1.73141E-06,-1.12335E-09,2.23155E-13,-249.00,-234.53,-2.49E+02,4.83E-02,0.00E+00
77-92-9,Citric_Acid,C6H8O7       ,MISC,C (CH2)2 OH (COOH)3 ,192.125,1.5827,659.000,822.000,37.979,0.420,1.8454,0.15908,0.0041742,-0.000003816,1.81984E-09,-3.6009E-13,-1390.00,-1176.00,-1.39E+00,7.15E-01,1.94E-05
77-99-6,Tri-M-ol-C3,C4H8O        ,Misc,(OH)3 (CH2)5 CH ,134.1750031,1.1204,562.039,709.000,39.100,0.416,1.5431,-0.11427,0.00622608,-4.9278E-06,2.05113E-09,-3.50149E-13,-640.20,-411.31,-6.49E+02,8.13E-01,-7.87E-05
78-01-3,11-Di-E-CC6,C10H20       ,ALD,(CH3)2 (CH2)7 CH ,140.2689972,0.8281,449.820,643.000,25.700,0.534,0.4036,-0.42734,0.0076586,-4.6122E-06,1.30272E-09,-1.4107E-13,-227.20,,-2.28E+02,9.16E-01,7.67E-05
7803-49-8,HydroxylAmin,H3NO         ,N,,33.02999878,0.2500,383.000,574.000,137.000,0.090,0.3531,0.58192,0.003573,-2.57862E-06,9.1244E-10,-1.0788E-13,-114.00,,-3.28E+01,-3.28E+01,-3.28E+01
7803-62-5,Silane,H4Si         ,Misc,,32.11729813,0.5832,161.000,269.700,48.400,0.133,0.0938,0.84221,0.000897,3.9684E-06,-4.376E-09,1.3138E-12,34.31,,3.43E+01,7.53E-02,0.00E+00
78-11-5,C5ErylNitrat,C5H8N4O12    ,Misc,,316.1380005,1.2424,543.000,676.000,22.400,0.731,1.4514,-0.063552,0.0040004,-3.2037E-06,1.12612E-09,-1.3181E-13,-386.70,0.00,-3.28E+01,-3.28E+01,-3.28E+01
78-30-8,TRI-o-CRESYL PHOSPHATE,C21H2104P,Misc,,368.369,1.1650,0.000,0.000,0.000,0.000,0.0000,0,0,0,0,0,0.00,0.00,,,
78-40-0,TEPhosphate,C6H15O4P     ,MISC,,182.1560059,1.0762,484.148,750.000,66.900,1.010,0.4384,-0.0564791,0.00485776,-3.11736E-06,8.87356E-10,-7.96445E-14,-1244.69,0.00,-3.28E+01,-3.28E+01,-3.28E+01
78448-33-6,i-P_i-BEther,C7H16O       ,Misc,(CH)2 (CH3)4 CH2O ,116.2030029,0.7452,371.200,537.000,27.900,0.435,0.3785,0.028386,0.0058908,-2.49447E-06,-4.056E-10,4.53515E-13,-334.10,,-3.34E+02,7.24E-01,6.34E-05
78-59-1,Isophorone,C9H14O       ,Misc,(CH3)3 CH2 C CH=C CH2CO ,138.2100067,0.9273,488.350,715.000,33.200,0.456,0.4002,-0.33585,0.0068102,-4.54473E-06,1.15805E-09,0,-250.99,-58.30,-2.52E+02,1.08E+00,4.94E-05
78-75-1,12-BromoC3,C3H6Br2      ,Misc,CH2 (Br)2 CH3 CH ,201.8890076,1.9426,413.200,634.098,54.100,0.322,0.3840,0.0653177,0.001864378,-1.36712E-06,4.05684E-10,2.24234E-21,-72.70,-17.66,-1.08E+02,2.87E-01,1.21E-04
78-76-2,2-BromoC4,C4H9Br       ,Misc,(CH3)2 CH2 Br CH ,137.029007,1.2691,364.398,558.700,42.000,0.315,0.3080,-0.000306502,0.0032854,-2.09522E-06,5.47604E-10,8.9454E-22,-120.08,-25.77,-1.42E+02,3.74E-01,2.12E-05
78-78-4,i-Pentane,C5H12        ,Misc,(CH3)3 CH2 CH ,72.15100098,0.6240,301.028,460.398,33.336,0.308,0.2222,-0.131798,0.007082,-3.9996E-06,1.00578E-09,-6.4788E-14,-154.59,-13.86,-1.57E+02,4.64E-01,4.34E-05
78-79-5,2M-13-C4==,C5H8         ,PN,CH3 CH2=CH CH2=C ,68.1190033,0.6855,307.204,484.260,38.500,0.276,0.1586,0.056018,0.005646,-2.01359E-06,0,0,75.78,145.90,7.43E+01,2.32E-01,2.40E-05
78-80-8,2M1Buten3yne,C5H6         ,OD,CH-=C CH3 CH2=C ,66.1026001,0.7097,305.398,492.000,43.800,0.248,0.1370,0.180631,0.00518064,-3.37338E-06,9.82356E-10,-8.18495E-14,260.00,302.00,2.61E+02,1.33E-01,2.07E-05
78-81-9,i-Butylamine,C4H11N       ,OC,(CH3)2 CH CH2NH2 ,73.13890076,0.7387,340.600,514.299,41.000,0.290,0.3680,0.12984,0.00606098,-2.88674E-06,3.19183E-10,0,-97.38,30.61,-9.74E+01,4.72E-01,4.08E-05
78-82-0,i-B-Nitrile,C4H7N        ,AMINE,,69.10630035,0.7761,376.760,565.000,37.600,0.278,0.3384,0.29298,0.00442194,-2.14204E-06,3.6281E-10,0,25.40,103.60,2.38E+01,2.60E-01,2.42E-05
78-83-1,i-Butanol,C4H10O       ,Misc,(CH3)2 CH2 CH OH ,74.1230011,0.8050,381.000,547.799,42.000,0.273,0.5920,-0.10405,0.00633018,-3.89328E-06,9.7618E-10,0,-283.39,-167.40,-2.83E+02,4.11E-01,4.47E-05
78-84-2,i-Butanal,C4H8O        ,OL,(CH3)2 CH CHO ,72.10700226,0.7946,337.000,512.000,41.500,0.274,0.3213,0.33944,0.0046572,-2.85459E-06,8.837E-10,0,-215.89,-116.15,-2.15E+02,3.12E-01,3.36E-05
78-85-3,Methacrolein,C4H6O        ,ALD,CH2=C CH3 CHO ,70.09100342,0.8517,341.148,520.000,42.500,0.250,0.2456,-0.191268,0.0049349,-1.72817E-06,-6.4708E-11,0,-111.99,-57.60,-1.13E+02,2.45E-01,2.37E-05
78-86-4,2-ClC4,C4H9Cl       ,ALD,(CH3)2 CH2 CHCl ,92.56900024,0.8728,341.398,520.598,39.500,0.305,0.3000,-0.0371105,0.00492818,-3.22236E-06,8.9244E-10,0,-161.59,-55.06,-1.64E+02,3.60E-01,3.13E-05
78-87-5,12-ClC3,C3H6Cl2      ,Misc,CH3 CH2Cl CHCl ,112.9860001,1.1510,369.500,577.000,44.500,0.226,0.2400,0.092549,0.00323694,-2.3062E-06,6.85564E-10,0,-165.99,100.82,-1.67E+02,2.76E-01,1.92E-05
78-88-6,23ClC3=,C3H4Cl2      ,HAL,CH2=C Cl CH2Cl ,110.9700012,1.2156,365.750,577.000,43.800,0.277,0.2061,0.271772,0.00234586,-1.8602E-06,7.83236E-10,-1.32167E-13,-47.90,1.39,-4.59E+01,1.47E-01,4.06E-05
78-90-0,12C3Diamine,C3H10N2      ,Misc,CH3 CH2NH2 CHNH2 ,74.12590027,0.8657,392.450,587.000,52.700,0.316,0.4738,0.029825,0.00625712,-4.43202E-06,1.75555E-09,-3.19717E-13,-53.68,95.83,-5.36E+01,4.89E-01,4.14E-05
78-92-2,2-Butanol,C4H10O       ,Misc,(CH3)2 CH2 CH OH ,74.1230011,0.8146,372.700,536.098,41.700,0.269,0.5770,0.0776651,0.0057307,-3.14268E-06,6.44332E-10,0,-292.79,-167.71,-2.95E+02,4.15E-01,3.64E-05
78-93-3,M-E-Ketone,C4H8O        ,OL,CH3 CH2 CH3CO ,72.10700226,0.8098,352.700,536.799,42.100,0.267,0.3200,0.151798,0.004939,-2.63667E-06,5.43984E-10,0,-238.49,-146.50,-2.40E+02,3.05E-01,3.09E-05
78-94-4,M-C2=one,C4H6O        ,ALD,CH2=CH CH3CO ,70.08950043,0.8644,354.549,560.916,47.681,0.266,0.2324,-0.250939,0.00521248,-2.09129E-06,0,0,-113.04,,-1.13E+02,1.78E-01,2.45E-05
78-96-6,1-Am-2-C3ol,C3H9NO       ,ALD,CH CH3 OH CH2NH2 ,75.11060333,0.9663,432.610,614.000,56.700,0.278,0.7870,-0.17282,0.0070936,-6.6159E-06,3.48084E-09,-7.488E-13,-239.00,-108.00,-2.39E+02,4.28E-01,3.76E-05
78-97-7,Lactonitrile,C3H5NO       ,Misc,,71.07839966,0.9917,457.000,643.000,50.300,0.243,0.7886,0.422762,0.0033192,-1.4283E-06,1.637E-10,3.15592E-14,-63.90,-24.00,-6.39E+01,1.29E-01,1.73E-05
78-99-9,11ClC3,C3H6Cl2      ,Misc,CHCl2 CH2 CH3 ,112.9860001,1.1392,361.250,560.000,42.400,0.291,0.2529,0.334096,0.001874204,3.07713E-07,-1.32971E-09,5.1646E-13,-150.80,-65.20,-1.49E+02,2.68E-01,4.78E-05
79-00-5,112-ClC2,C2H3Cl3      ,HAL,CHCl2 CH2Cl ,133.404007,1.4413,386.700,606.000,51.400,0.285,0.2830,0.0474195,0.00257354,-2.21865E-06,7.34548E-10,0,-138.59,-77.49,-1.40E+02,2.06E-01,5.92E-06
79-01-6,Cl3-C2=,C2HCl3       ,HAL,CH=C (Cl)3 ,131.3890076,1.4614,360.398,572.000,50.500,0.256,0.2130,0.229766,0.001741706,-1.69753E-06,6.27852E-10,0,-5.86,16.07,-9.89E+00,8.73E-02,-1.04E-06
79-02-7,DiClC2al,C2H2Cl2O     ,Misc,CCl2 CHO ,112.9430008,1.4287,362.000,555.000,49.500,0.239,0.3437,0.381471,0.001009052,6.40398E-07,-1.50649E-09,6.1742E-13,-180.00,-160.00,-1.79E+02,1.25E-01,3.11E-05
79-04-9,ChlrocetylCl,C2H2Cl2O     ,Misc,,112.9430008,1.4235,379.148,581.000,51.100,0.245,0.3540,0.255423,0.001937342,-1.70395E-06,8.03708E-10,-1.61746E-13,-245.60,-203.37,-2.44E+02,1.27E-01,3.22E-05
79-06-1,Acrylamide,C3H5NO       ,Misc,,71.07879639,0.9871,514.000,776.000,57.300,0.260,0.4863,0.10465,0.0041192,-1.97574E-06,7.6336E-11,1.40745E-13,-130.20,-97.90,-1.30E+02,2.35E-01,2.08E-05
79-09-4,C3oicAcid,C3H6O2       ,Misc,CH3 CH2 COOH ,74.08000183,0.9988,414.497,612.000,54.000,0.235,0.5200,0.0765765,0.00498304,-3.86991E-06,1.33415E-09,0,-455.39,-369.60,-4.55E+02,2.80E-01,2.53E-05
79-10-7,AcrylicAcid,C3H4O2       ,ES,CH2=CH COOH ,72.06359863,1.0603,414.150,615.000,56.600,0.208,0.5383,0.13497,0.0038835,-2.44713E-06,5.85768E-10,0,-336.20,-286.06,-3.37E+02,1.67E-01,1.52E-05
79-11-8,ClC2oicAcid,C2H3ClO2     ,Misc,COOH CH2Cl ,94.49720001,1.3748,462.500,686.000,57.800,0.221,0.5461,0.085457,0.00326514,-3.05904E-06,1.52593E-09,-3.19125E-13,-435.20,-373.50,-4.35E+02,2.02E-01,2.48E-05
791-28-6,Tri-Ph-P_Ox,C18H15OP     ,Misc,,278.2900085,-32.7975,-32493.850,-32493.850,-327.670,-32767.000,-32767.0000,-0.53821,0.0068632,-6.6267E-06,3.31176E-09,-6.679E-13,38.81,,-3.28E+01,-3.28E+01,-3.28E+01
79-14-1,GlycolicAcid,C2H4O3       ,Misc,CH2 OH COOH ,76.05200195,1.2713,443.000,616.000,73.100,0.177,1.0592,0.00627903,0.00460284,-4.45707E-06,2.29839E-09,-4.65205E-13,-585.00,,-5.85E+02,2.56E-01,1.93E-05
79-16-3,n_MAcetamide,C3H7NO       ,Misc,CH3 CONHCH3 ,73.09470367,0.9520,478.148,718.000,49.800,0.267,0.4351,0.0131623,0.00366404,-4.72455E-07,-1.02855E-09,4.12048E-13,-240.00,-135.00,-2.39E+02,3.36E-01,4.62E-05
79-20-9,M-Acetate,C3H6O2       ,Misc,CH3 CH3COO ,74.08000183,0.9402,330.398,506.799,46.900,0.228,0.3260,0.22355,0.0030325,-5.86497E-07,3.93608E-10,0,-409.68,-321.40,-4.10E+02,2.40E-01,2.83E-05
79-21-0,PerC2oicAcid,C2H4O3       ,ES,CH3 OH COO ,76.05200195,1.1616,382.000,557.000,64.000,0.198,0.6736,-0.0763253,0.00445258,-3.59859E-06,1.20144E-09,0,-339.30,,-3.39E+02,-4.83E-01,2.24E-05
79-22-1,MClC1oate,C2H3ClO2     ,Misc,CH3COO Cl ,94.49720001,1.2291,344.000,525.000,53.600,0.221,0.3921,0.16807,0.00271826,-1.46408E-06,-5.36716E-10,6.143E-13,-424.00,-361.00,-4.23E+02,2.02E-01,2.44E-05
79-24-3,NitroC2,C2H5NO2      ,Misc,CH3 CH2NO2 ,75.06990051,1.0530,387.950,594.900,51.160,0.229,0.3684,0.59266,0.00110803,5.06991E-06,-2.31249E-09,-1.04475E-21,-101.22,-4.90,-1.03E+02,3.24E-01,1.98E-05
79-27-6,1122BromoC2,C2H2Br4      ,MISC,(CH)2 (Br)4 ,345.6530151,2.9431,516.650,824.000,46.000,0.401,0.1770,0.142467,0.000723292,-5.65308E-07,1.60744E-10,-1.84495E-15,10.88,24.70,1.02E+01,4.91E-02,-9.88E-07
79-29-6,2-ClC3,C3H7Cl       ,Misc,(CH3)2 CHCl ,78.54190063,0.8679,308.898,484.997,45.200,0.230,0.2319,0.0234676,0.00444384,-2.85886E-06,7.46824E-10,0,-146.49,,-1.48E+02,2.79E-01,2.42E-05
79-29-8,23-Mbutane,C6H14        ,Misc,(CH3)4 (CH)2 ,86.17790222,0.6658,331.127,499.980,31.269,0.358,0.2470,-0.1695,0.00713678,-7.05087E-06,2.56406E-09,0,-177.89,-2.05,-1.81E+02,5.78E-01,4.97E-05
79-31-2,i-C4oicAcid,C4H8O2       ,PN,(CH3)2 CH COOH ,88.10700226,0.8067,427.898,607.000,40.500,0.292,0.6230,0.111449,0.00530158,-4.22493E-06,1.53322E-09,0,-484.18,93.42,-4.84E+02,3.94E-01,3.13E-05
79-34-5,1122-ClC2,C2H2Cl4      ,ACID,(CHCl2)2 ,167.8500061,1.6015,419.398,661.200,58.200,0.330,0.3009,0.16495,0.00193807,-1.77289E-06,6.12832E-10,0,-152.79,-85.56,-1.54E+02,2.29E-01,-5.69E-07
79-36-7,DiClAcetylCl,C2HCl3O      ,Misc,,147.3860016,1.5361,380.450,585.000,46.100,0.283,0.3089,0.184407,0.00211342,-2.54188E-06,1.52012E-09,-3.50694E-13,-240.33,-232.15,-2.38E+02,1.46E-01,3.61E-05
79-38-9,Cl-F3-C2=,C2ClF3       ,Misc,C=C Cl (F)3 ,116.4690018,1.3068,245.300,377.000,40.500,0.212,0.2520,0.350499,0.00159324,-1.23639E-06,3.41708E-10,0,-531.68,-542.00,-5.31E+02,-1.24E-01,8.64E-06
79-39-0,2MAcryAmide,C4H7NO       ,Misc,,85.10540009,0.8388,488.000,741.000,54.500,0.298,0.4209,-0.298875,0.00749376,-9.12975E-06,6.81648E-09,-2.09374E-12,-185.00,-90.40,-1.85E+02,3.12E-01,2.28E-05
79-41-4,m-AcrylAcid,C4H6O2       ,Misc,CH2=C CH3 COOH ,86.0904007,1.0220,434.148,642.000,47.000,0.270,0.4678,-0.201917,0.0055026,-4.21338E-06,1.29844E-09,0,-367.99,-287.72,-3.68E+02,2.80E-01,2.76E-05