CAS Number,Name,Formula,Type,UNIFAC,MW,SG6060,TB,Tc,Pc,Vc,OMEGA,CPA,CPB,CPC,CPD,CPE,HFORM25,GFORM25,GIBBSA,GIBBSB,GIBBSC
74-95-3,DiBromoC1,CH2Br2       ,Misc,CH2 (Br)2 ,173.8350067,2.5080,370.100,611.000,71.700,0.223,0.2095,0.161244,0.000608164,-2.50288E-07,-5.84272E-11,4.85717E-14,-11.31,-16.20,-1.13E+01,-1.12E-02,9.03E-06
74-96-4,BromoC2,C2H5Br       ,Misc,CH3 CH2 Br ,108.9660034,1.4707,311.500,503.799,62.315,0.215,0.2533,0.237399,0.0011242,5.46417E-07,-1.01338E-09,3.26421E-13,-63.60,-25.70,-6.33E+01,1.18E-01,2.38E-05
74-97-5,BromoClC1,CH2BrCl      ,Misc,CH2 Cl Br ,129.3840027,1.9488,341.200,557.000,68.100,0.188,0.2204,0.214966,0.00067248,6.60408E-08,-4.55484E-10,1.82525E-13,-42.70,-31.80,-4.19E+01,2.73E-02,2.22E-05
74-98-6,Propane,C3H8         ,PN,(CH3)2 CH2 ,44.09700012,0.5071,231.048,369.898,42.567,0.200,0.1524,0.395,0.00422818,1.18946E-06,-2.6687E-09,8.3968E-13,-103.89,-24.29,-1.06E+02,2.65E-01,3.25E-05
74-99-7,M-Acetylene,C3H4         ,OD,CH-=C CH3 ,40.06480026,0.6211,249.940,402.390,56.276,0.164,0.2161,0.367149,0.00465242,-2.93024E-06,8.0468E-10,2.80795E-22,185.50,150.60,1.85E+02,2.57E-02,1.48E-05
75-00-3,ClC2,C2H5Cl       ,HAL,CH3 CH2Cl ,64.51000214,0.9033,285.500,460.398,53.700,0.199,0.1910,-0.00857785,0.00404236,-2.85409E-06,8.60572E-10,0,-111.79,-60.43,-1.13E+02,1.71E-01,2.00E-05
75-01-4,VinylCl,C2H3Cl       ,HAL,CH2=CH Cl ,62.49200058,0.9201,259.799,425.000,51.500,0.179,0.1220,0.0952581,0.00323294,-2.45944E-06,7.6426E-10,0,35.17,42.93,3.16E+01,3.29E-02,1.88E-05
75-02-5,VinylFl,C2H3F        ,Misc,CH2=CH F ,46.04380035,0.6549,200.998,327.898,52.300,0.144,0.1570,0.44505,0.00258912,-7.96947E-07,-4.25448E-11,0,-117.20,-125.06,-1.39E+02,4.37E-02,1.34E-05
75-03-6,E-Iodide,C2H5I        ,Misc,CH2 I CH3 ,155.9660034,1.9624,345.600,552.000,47.000,0.270,0.1563,0.0648214,0.001444536,-8.86074E-07,2.26393E-10,-1.0686E-21,-8.37,21.34,-4.51E+01,1.81E-01,1.13E-05
75-04-7,Ethylamine,C2H7N        ,AMINE,CH3 CH2NH2 ,45.08480072,0.6079,289.700,456.398,56.200,0.182,0.2890,0.0819648,0.00610804,-3.51339E-06,8.45164E-10,0,-46.05,36.28,-4.77E+01,2.76E-01,2.69E-05
75-05-8,AcetoNitrile,C2H3N        ,Misc,CH3CN ,41.0530014,0.7827,354.799,545.500,48.200,0.173,0.3270,0.499056,0.00291514,-1.09492E-06,7.80704E-11,0,87.92,105.60,8.75E+01,5.63E-02,1.32E-05
75-07-0,AcetAldehyde,C2H4O        ,ALD,CH3 CHO ,44.05400085,0.7777,293.000,461.000,55.700,0.154,0.3030,0.175249,0.00414078,-2.28724E-06,5.40584E-10,0,-164.39,-133.30,-1.67E+02,1.07E-01,1.87E-05
75-08-1,E-Mercaptan,C2H6S        ,MISC,CH2SH CH3 ,62.13380051,0.8373,308.200,498.997,54.918,0.207,0.1900,0.24009,0.00378338,-3.92838E-06,1.64874E-09,0,-46.14,-2.07,-4.24E+01,1.08E-01,6.20E-05
75-09-2,Cl2-C1,CH2Cl2       ,HAL,CH2Cl2 ,84.93280029,1.3372,313.000,509.997,60.700,0.185,0.1990,0.15257,0.001912192,-1.53386E-06,4.95752E-10,0,-95.46,-68.84,-9.60E+01,8.81E-02,8.54E-06
75-10-5,F2-C1,CH2F2        ,Misc,CH2 (F)2 ,52.02280045,0.9950,221.500,351.600,58.200,0.121,0.2710,0.226778,0.00227158,-9.31542E-07,4.08716E-11,0,-450.89,-424.70,-4.54E+02,9.06E-02,1.27E-05
75-11-6,CH2I2,CH2I2        ,Misc,CH2 (I)2 ,267.8380127,3.3395,455.200,740.900,54.200,0.268,0.1800,0.0814514,0.00059132,-5.23587E-07,1.83735E-10,2.07811E-22,117.99,101.09,5.33E+01,9.21E-02,3.15E-06
75-12-7,Formamide,CH3NO        ,MISC,,45.04100037,1.1381,492.000,770.000,77.000,0.163,0.4534,0.673695,0.000387708,4.1595E-06,-4.31264E-09,1.27361E-12,-186.19,-141.04,-1.86E+02,1.51E-01,0.00E+00
75-15-0,CS2,CS2          ,MISC,CS2 ,76.13050079,1.2705,319.359,552.000,79.034,0.172,0.1041,0.293499,0.001463618,-1.85501E-06,1.12414E-09,-2.59638E-13,116.00,66.90,1.21E+02,-1.98E-01,5.06E-05
75-18-3,diM-Sulphide,C2H6S        ,MISC,CH3 CH3S ,62.13000107,0.8478,310.500,501.997,55.200,0.201,0.1910,0.391349,0.00301984,-1.10728E-06,6.60156E-11,0,-37.56,7.41,-3.36E+01,1.17E-01,6.29E-05
75-19-4,Cyclopropane,C3H6         ,N,(CH2)3 ,42.08060074,0.4209,240.371,397.811,54.951,0.171,0.1300,-0.83742,0.00906112,-6.84633E-06,2.14705E-09,-3.93378E-22,53.34,104.40,5.16E+01,1.69E-01,2.50E-05
75-21-8,C2Oxide,C2H4O        ,Misc,CH2O CH2 ,44.05400085,0.8829,283.700,469.000,71.900,0.140,0.2020,-0.17067,0.0050438,-2.85103E-06,5.88352E-10,-2.0259E-22,-52.67,-13.10,-5.38E+01,1.30E-01,1.87E-05
75-24-1,TriMAluminum,C3H9Al       ,Misc,,72.08580017,0.7555,400.269,620.000,40.000,0.271,0.2179,0.0812383,0.00508398,-2.64182E-06,4.776E-10,1.94625E-14,-74.10,,-7.41E+01,2.81E-01,0.00E+00
75-25-2,Bromoform,CHBr3        ,Misc,CH (Br)3 ,252.7310028,2.9029,422.450,695.000,60.700,0.286,0.1561,0.131587,0.000693462,-7.75863E-07,4.27208E-10,-9.25325E-14,16.60,7.40,1.63E+01,-2.99E-02,3.53E-07
75-26-3,2-BromoC3,C3H7Br       ,Misc,(CH2)2 CH3 Br ,123,1.3196,332.600,522.499,49.000,0.259,0.2640,0.0249999,0.00285364,-1.87901E-06,5.0554E-10,-1.0845E-21,-97.07,-27.24,-1.18E+02,2.89E-01,1.70E-05
75-28-5,i-Butane,C4H10        ,PN,(CH3)3 CH ,58.12400055,0.5625,261.420,408.096,36.476,0.263,0.1848,0.1533,0.00526958,2.18168E-07,-2.91158E-09,1.18368E-12,-134.59,-21.44,-1.37E+02,3.76E-01,3.75E-05
75-29-6,2C3Choride,C3H7Cl       ,Misc,(CH3)2 CHCl ,78.54100037,0.8678,308.850,488.997,45.400,0.247,0.2240,0.602619,0.000891066,4.18452E-06,-4.92508E-09,1.59527E-12,-144.77,-62.51,-1.44E+02,2.63E-01,4.33E-05
75-30-9,2-IodoC3,C3H7I        ,Misc,(CH3)2 CH I ,170.0090027,1.7135,362.600,574.598,43.200,0.285,0.1950,0.0286747,0.00205144,-1.35662E-06,3.676E-10,1.94082E-22,-41.83,20.08,-8.06E+01,2.94E-01,1.30E-05
75-31-0,iPropylamine,C3H9N        ,AMINE,(CH3)2 CHNH2 ,59.11190033,0.6946,305.600,471.799,45.200,0.221,0.2910,-0.126718,0.00706752,-4.78386E-06,1.41316E-09,0,-83.82,32.23,-8.36E+01,3.98E-01,3.88E-05
75-33-2,2Propanthiol,C3H8S        ,Misc,(CH3)2 CHSH ,76.16000366,0.8197,325.700,512.000,43.500,0.252,0.2230,0.0871191,0.00475338,-2.98397E-06,7.75416E-10,6.36245E-21,-76.22,-2.55,-7.23E+01,2.13E-01,7.05E-05
75-34-3,11-ClC2,C2H4Cl2      ,HAL,CH3 CHCl2 ,98.95980072,1.1837,330.500,523.000,50.700,0.236,0.2400,0.126088,0.0027261,-2.07283E-06,6.37132E-10,0,-129.99,-73.23,-1.31E+02,1.90E-01,1.29E-05
75-35-4,11-ClC2=,C2H2Cl2      ,Misc,CH2=C (Cl)2 ,96.94300079,1.1329,304.709,482.000,51.900,0.224,0.2721,0.161018,0.00243772,-2.52906E-06,1.3558E-09,-2.91581E-13,2.38,25.40,1.99E+00,7.67E-02,5.21E-06
75-36-5,AcetylCl,C2H3ClO      ,Misc,CH3CO Cl ,78.4980011,1.1050,323.898,507.000,58.700,0.204,0.3440,0.31894,0.00218104,-1.25628E-06,2.82859E-10,0,-244.09,-206.23,-2.44E+02,1.24E-01,1.25E-05
75-37-6,11-F-C2,C2H4F2       ,HAL,CH3 CH (F)2 ,66.0510025,1.0129,248.199,386.700,45.000,0.181,0.2560,1.31422,0.00362984,-2.20723E-06,5.14168E-10,0,-494.00,-443.30,-4.95E+02,1.91E-01,1.69E-08
75-38-7,11-FC2=,C2H2F2       ,Misc,CH2=C (F)2 ,64.03500366,0.6980,187.500,302.898,44.600,0.154,0.1400,0.0480184,0.00382068,-3.27996E-06,1.09714E-09,0,-345.39,-313.06,-3.37E+02,7.85E-02,7.97E-06
75-43-4,Refrig-21,CHCl2F       ,Misc,HCCl2F ,102.9160004,1.3644,282.049,451.579,51.838,0.196,0.2069,0.239399,0.001552872,-1.31539E-06,5.06524E-10,-6.71275E-14,-296.84,-254.40,-2.84E+02,1.03E-01,3.07E-06
75-44-5,Phosgene,CCl2O        ,MISC,,98.91600037,1.3813,281.000,455.000,56.700,0.190,0.2050,0.283969,0.001375912,-1.38905E-06,5.1254E-10,-1.09733E-22,-221.10,-205.94,-3.28E+01,-3.28E+01,-3.28E+01
75-45-6,Refrig-22,CHClF2       ,HAL,HCClF2 ,86.46900177,1.2291,232.399,369.199,49.750,0.165,0.2150,0.2,0.00187121,-1.35275E-06,3.53698E-10,0,-501.98,-451.70,-4.82E+02,1.05E-01,4.25E-06
75-46-7,Fluoroform,CHF3         ,HAL,CH (F)3 ,70.01300049,0.8780,191.000,299.299,48.600,0.133,0.2600,0.11655,0.00259122,-1.97084E-06,5.62824E-10,0,-697.48,-658.80,-6.98E+02,1.15E-01,7.11E-06
75-47-8,CHI3,CHI3         ,Misc,CH (I)3 ,393.730011,4.0235,491.200,794.598,53.100,0.350,0.1930,0.105532,0.000389248,-3.94752E-07,1.48207E-10,-4.39251E-22,210.87,177.95,1.16E+02,1.09E-01,-2.37E-06
75-50-3,triMthylamin,C3H9N        ,AMINE,(CH3)2 CH3N ,59.11190033,0.6408,276.000,433.299,40.700,0.254,0.2050,-0.138899,0.0067239,-3.7563E-06,7.82396E-10,0,-23.86,99.30,-2.65E+01,4.10E-01,3.22E-05
7550-45-0,TiCl4,TiCl4        ,Misc,,189.7290039,1.7366,408.850,631.150,46.305,0.303,0.2951,0.561229,4.41042E-07,-5.20302E-07,-3.08468E-19,1.29018E-22,-763.70,,-7.64E+02,1.22E-01,0.00E+00
75-52-5,NitroC1,CH3NO2       ,MISC,CH3NO2 ,61.04100037,1.1390,374.299,587.000,63.100,0.173,0.3100,0.121498,0.00324042,-1.77093E-06,3.41571E-10,2.30421E-21,-74.77,-6.90,-7.62E+01,2.27E-01,1.44E-05
7553-56-2,Iodine,I2           ,Misc,CH4 ,253.8200073,4.3112,457.500,1092.150,117.534,0.155,0.1230,0.1401,0.000025667,-2.75311E-08,1.11652E-11,-2.58988E-24,0.00,19.33,0.00E+00,0.00E+00,0.00E+00
75-54-7,MClSilane,CH4Cl2Si     ,Misc,,115.0299988,1.1168,314.700,483.000,39.500,0.289,0.2758,0.317523,0.0020604,-1.79099E-06,8.35068E-10,-1.6091E-13,-402.00,-348.30,-4.02E+02,1.80E-01,0.00E+00
75-55-8,C3=imine,C3H7N        ,Misc,(CH2)2 CH2NH ,57.0951004,0.8126,334.000,529.000,54.200,0.208,0.2566,-0.708269,0.00892336,-8.31072E-06,4.21028E-09,-8.74435E-13,88.80,173.00,8.86E+01,2.74E-01,3.00E-05
75-56-9,12C3Oxide,C3H6O        ,Misc,CH2O CH CH3 ,58.08000183,0.8362,308.000,482.200,49.200,0.186,0.2690,-0.257159,0.0062241,-4.43757E-06,1.3327E-09,-2.13271E-20,-92.82,-25.77,-9.44E+01,2.22E-01,2.44E-05
75-61-6,Br2-F2-C1,CBr2F2       ,Misc,(Br)2 CF2 ,209.8150024,2.4643,298.000,471.299,41.200,0.250,0.1770,0.141069,0.00098339,-9.33474E-07,2.97981E-10,0,-412.28,-375.70,-4.14E+02,5.09E-02,-1.90E-05
75-62-7,BrTriClC1,CBrCl3       ,Misc,CCl3 Br ,198.2720032,2.0142,378.049,606.000,49.700,0.284,0.1920,0.116946,0.00170026,-2.75337E-06,2.00188E-09,-5.37335E-13,-38.90,-15.20,-3.84E+01,7.35E-02,1.39E-05
75-63-8,bromotriﬂuoromethane,CBrF3,MISC,,148.91,1.5360,215.410,340.150,39.700,0.200,0.1740,0.115559734,0.001663421,-1.95964E-06,1.09106E-09,-2.33463E-13,-649.80,-622.90,-6.65E-01,1.37E-01,-2.21E-09
75-64-9,trt-Btylamin,C4H11N       ,AMINE,,73.13800049,0.6983,317.549,483.898,38.200,0.293,0.2748,0.1805,0.0059333,-3.0048E-06,5.49176E-10,0,-119.87,28.87,-1.23E+02,4.98E-01,3.41E-05
75-65-0,tert-Butanol,C4H10O       ,OL,(CH3)3 C OH ,74.1230011,0.7820,355.500,506.200,39.700,0.275,0.6120,-0.656059,0.00968152,-9.56349E-06,3.94194E-09,0,-312.79,-191.20,-3.28E+02,4.49E-01,3.44E-05
75-66-1,t-B-Mercapta,C4H10S       ,MISC,(CH3)3 CSH ,90.18900299,0.8056,337.368,520.000,40.600,0.307,0.1907,0.321917,0.00379824,-6.89115E-07,-1.01429E-09,4.30943E-13,-109.29,0.71,-1.05E+02,3.33E-01,7.70E-05
75-68-3,R-142b,C2H3ClF2     ,Misc,CF2 Cl CH3 ,100.4990005,1.1253,263.138,410.200,41.200,0.231,0.2360,0.0166822,0.00349648,-3.09669E-06,1.04588E-09,5.3471E-20,-501.32,-465.70,-5.01E+02,2.30E-01,0.00E+00
75-69-4,Refrig-11,CCl3F        ,HAL,CCl3F ,137.3670044,1.4964,296.000,471.199,44.076,0.248,0.1910,0.2983,0.001186516,-1.03097E-06,3.01806E-10,0,-284.69,-244.40,-6.94E+02,1.35E-01,6.85E-07
75-71-8,Refrig-12,CCl2F2       ,HAL,CCl2F2 ,120.913002,1.3438,243.399,385.000,41.239,0.217,0.1760,0.26129,0.001474016,-1.24754E-06,3.59058E-10,0,-481.48,-451.70,-4.82E+02,1.45E-01,4.34E-06
75-72-9,Refrig-13,CClF3        ,HAL,CClF3 ,104.4700012,0.9809,191.750,302.049,38.699,0.181,0.1793,0.2278,0.001405056,0,0,0,-694.98,-663.60,-6.97E+02,2.06E-01,-6.27E-06
75-73-0,CF4,CF4          ,HAL,C (F)4 ,88.00460052,1.6075,145.100,227.600,37.200,0.140,0.1770,0.15895,0.00230364,-1.84762E-06,5.13136E-10,0,-933.67,-888.80,-9.34E+02,1.52E-01,6.73E-08
75-75-2,METHANESULFONIC ACID ,CH403S,MISC,,96.107,1.4770,561.000,0.000,0.000,0.220,0.0000,0.681011789,-0.001078277,6.53272E-06,-6.99158E-09,2.40503E-12,0.00,-459.00,,,
75-76-3,TMSilane,C4H12Si      ,Misc,(CH3)4 SI ,88.22480011,0.6523,299.799,450.398,28.140,0.357,0.2240,0.718226,0.00313822,5.25918E-07,-1.821E-09,6.52085E-13,-233.20,-94.18,-2.33E+02,4.66E-01,0.00E+00
75-77-4,TMClSilane,C3H9ClSi     ,Misc,,108.6389999,0.8669,330.750,497.750,32.000,0.366,0.2701,0.330228,0.00392804,-3.4446E-06,1.81258E-09,-4.12452E-13,-352.79,,-3.53E+02,3.66E-01,0.00E+00
75-78-5,DMDClSilane,C2H6Cl2Si    ,Misc,,129.0610046,1.0798,343.350,520.348,34.900,0.358,0.2675,0.291372,0.00252598,-2.171E-06,1.09551E-09,-2.4146E-13,-448.30,,-4.48E+02,2.84E-01,0.00E+00
75-79-6,Meth3ClSilan,CH3Cl3Si     ,Misc,,149.4779968,1.2843,339.550,517.000,35.300,0.340,0.2634,0.35917,0.0014513,-1.3194E-06,6.3692E-10,-1.25135E-13,-571.80,-511.10,-5.72E+02,2.03E-01,0.00E+00
7581-97-7,23-DiCl-C4,C4H8Cl2      ,Misc,(CH3)2 CHCl ,127.0130005,1.1191,392.650,599.000,37.400,0.343,0.2682,0.013405,0.0038914,-2.97939E-06,1.21208E-09,-2.0939E-13,-192.60,,-1.91E+02,3.63E-01,5.51E-05
75-83-2,22-Mbutane,C6H14        ,PN,(CH3)4 CH2 C ,86.17790222,0.6532,322.881,504.449,38.806,0.359,0.2319,-0.193,0.007302,-7.2702E-06,2.5751E-09,0,-185.69,-9.63,-1.89E+02,5.86E-01,4.76E-05
75-84-3,22-M-1-C3ol,C5H12O       ,OL,(CH3)3 CH2 C OH ,88.15000153,0.7827,386.299,547.000,39.200,0.330,0.6036,0.137899,0.00612654,-3.5871E-06,8.08456E-10,0,-293.09,-155.38,-2.93E+02,4.93E-01,4.00E-05
75-85-4,2-M-2-C4ol,C5H12O       ,OL,(CH3)3 CH2 C OH ,88.15000153,0.8143,375.500,545.000,39.500,0.330,0.4831,-0.137238,0.0069201,-4.77231E-06,1.39399E-09,0,-329.89,-166.00,-3.32E+02,5.44E-01,4.24E-05
75-86-5,AcetoneCyaHy,C4H7NO       ,Misc,,85.10540009,0.9359,444.000,620.000,42.500,0.296,0.7673,0.154794,0.0049959,-3.89457E-06,1.66996E-09,-3.14851E-13,-133.00,-30.97,-1.33E+02,3.34E-01,2.54E-05
75-87-6,TriC2C2al,C2HCl3O      ,Misc,CCl3 CHO ,147.3860016,1.5163,370.850,565.000,44.100,0.288,0.3323,0.31215,0.001575126,-1.61621E-06,8.5902E-10,-1.86682E-13,-197.00,-148.00,-1.95E+02,1.48E-01,3.36E-05
75-88-7,2-Cl-111-FC2,C2H2ClF3     ,Misc,CF3 CH2Cl ,118.4860001,1.3506,279.250,430.000,38.400,0.238,0.2465,0.057365,0.0031366,-3.1455E-06,1.55324E-09,-3.0339E-13,-741.80,,-7.42E+02,2.25E-01,1.75E-05
75-91-2,tBHyPeroxide,C4H10O2      ,Misc,,90.12220001,0.8993,388.148,552.000,43.400,0.290,0.6623,-0.0121291,0.00640274,-5.58351E-06,2.79228E-09,-6.0496E-13,-243.00,-88.90,-2.43E+02,5.06E-01,3.61E-05
75-97-8,33M2C4one,C6H12O       ,KET,CH3CO C (CH3)3 ,100.1610031,0.8115,379.450,564.000,33.200,0.368,0.3298,-0.192376,0.0061734,-3.45591E-06,5.03076E-10,1.55704E-13,-290.70,,-2.90E+02,5.15E-01,5.36E-05
75-98-9,NeoC5oicAcid,C5H10O2      ,ACID,(CH3)3 C COOH ,102.1330032,0.9091,436.950,632.000,38.900,0.336,0.5093,-0.396403,0.00721214,-6.64422E-06,3.38686E-09,-7.3062E-13,-491.30,,-4.91E+02,5.02E-01,4.23E-05
76-01-7,Cl5-C2,C2HCl5       ,Misc,CHCl2 CCl3 ,202.2940063,1.6907,434.997,645.000,34.700,0.369,0.3370,0.21734,0.001668936,-1.65997E-06,6.00004E-10,0,-142.39,-66.65,-1.43E+02,2.60E-01,-9.02E-06
760-20-3,3M1C5=,C6H12        ,N,CH2=CH CH (CH3)2 CH2 ,84.16000366,0.6730,327.299,495.299,32.700,0.347,0.2620,0.0389258,0.0067557,-4.42038E-06,1.22099E-09,5.63055E-21,-45.01,86.44,-4.73E+01,4.36E-01,3.75E-05
760-21-4,2E1C4=,C6H12        ,N,CH2=C (CH2)2 (CH3)2 ,84.16000366,0.6947,337.799,510.398,32.700,0.354,0.2670,-0.157817,0.0071529,-4.77315E-06,1.35253E-09,3.52336E-21,-51.55,79.96,-5.50E+01,4.47E-01,3.77E-05
760-23-6,34Cl1C4=,C4H6Cl2      ,Misc,CH2=CH CHCl CH2Cl ,124.9970016,1.1604,388.000,589.000,38.500,0.330,0.3002,0.366021,0.00213412,-1.24884E-06,9.53152E-10,-5.0267E-13,-64.40,15.10,-6.25E+01,2.46E-01,4.84E-05
76-02-8,TriClActylCl,C2Cl4O       ,Misc,,181.8320007,1.6305,391.148,590.000,41.000,0.332,0.3502,0.268441,0.001604588,-1.90397E-06,1.02481E-09,-1.90323E-13,-231.20,-249.12,-2.29E+02,1.79E-01,3.85E-05
76-03-9,TriClC2oicAc,C2HCl3O2     ,Misc,CCl3 COOH ,163.3860016,1.6095,470.778,688.000,48.100,0.309,0.5490,0.147308,0.00255594,-3.36219E-06,2.21218E-09,-5.6262E-13,-435.00,,-4.33E+02,2.37E-01,3.11E-05
76-05-1,F3-C2oicAcid,C2HF3O2      ,Misc,COOH CF3 ,114.0240021,1.5364,346.000,491.299,32.600,0.204,0.5400,0.18207,0.0027915,-2.30206E-06,6.9742E-10,0,-1031.96,-946.00,-1.02E+00,2.45E-01,8.02E-07
76-11-9,1112ClF2C2,C2Cl4F2      ,Misc,CCl3 CClF2 ,203.8300018,1.6991,364.648,552.000,33.400,0.351,0.2561,0.105352,0.00248172,-3.31623E-06,2.0841E-09,-5.00465E-13,-541.00,,-5.39E+02,2.64E-01,3.44E-05
76-12-0,1122Cl12FC2,C2Cl4F2      ,Misc,(CCl2F)2 ,203.8300018,2.2177,366.000,551.000,38.700,0.367,0.2912,0.127297,0.00259296,-3.22221E-06,1.34713E-09,0,-699.60,-618.55,-6.98E+02,7.70E-01,2.89E-05
76-13-1,Refrig-113,C2Cl3F3      ,Misc,CCl2F CClF2 ,187.3890076,1.5815,320.720,487.247,34.360,0.325,0.2450,0.326199,0.001533758,-1.2914E-06,3.68434E-10,0,-695.46,-627.30,-6.96E+02,2.71E-01,-1.70E-05
76-14-2,12Cl1122FC2,C2Cl2F4      ,Misc,(CClF2)2 ,170.9210052,1.4814,276.200,418.898,32.600,0.294,0.2460,0.227029,0.00201392,-1.72705E-06,4.98076E-10,0,-898.47,-818.10,-8.88E+02,2.82E-01,-1.20E-05
76-15-3,C2-Cl-F5,C2ClF5       ,Misc,CF3 CClF2 ,154.4660034,1.3710,235.199,353.200,32.200,0.252,0.2790,0.180167,0.00226064,-1.87159E-06,5.26896E-10,9.5674E-22,-1108.76,-1042.00,-1.11E+00,2.82E-01,-6.26E-06
76-16-4,perF-C2,C2F6         ,Misc,(CF3)2 ,138.0110016,1.5915,194.899,293.000,30.600,0.222,0.2451,0.19445,0.00250714,-2.08012E-06,5.89804E-10,0,-1343.90,-1257.00,-1.34E+00,2.94E-01,-7.68E-06
7616-94-6,perchloryl ﬂuoride,ClFO3,MISC,,102.449,,226.490,368.400,53.700,0.161,0.0000,0.03814171,0.002948922,-3.89208E-06,2.55387E-09,-6.73566E-13,-21.44,50.62,,,
76-19-7,perF-C3,C3F8         ,Misc,(CF3)2 CF2 ,188.0160065,1.3706,236.500,345.100,26.800,0.300,0.3250,0.19487,0.00255914,-2.06642E-06,5.8076E-10,0,-1700.38,-1610.31,-1.71E+00,4.28E-01,-1.31E-05
76-22-2,Camphor,C10H16O      ,Misc,(CH3)3 (CH2)2 CH (C)2 CH2CO ,152.2350006,0.9851,480.570,709.000,29.800,0.460,0.3189,-0.869568,0.00805354,-5.16786E-06,1.21369E-09,0,-256.99,-14.50,-2.59E+02,1.24E+00,6.60E-05
762-62-9,44M1-pentene,C7H14        ,N,(CH3)3 CH2 C CH2=CH ,98.18900299,0.6861,345.661,526.481,28.571,0.400,0.1817,0.1645,0.0056468,-2.0144E-06,0,0,-71.13,,-7.13E+01,5.56E-01,4.71E-05
762-75-4,t-C4_Formate,C5H10O2      ,ACID,C (CH3)3 HCOO ,102.1330032,0.8850,355.950,537.000,35.800,0.334,0.2944,-0.47332,0.0082496,-8.8866E-06,5.162E-09,-1.19355E-12,-465.10,,-4.65E+02,5.05E-01,3.64E-05
763-29-1,2M1C5=,C6H12        ,N,(CH3)2 (CH2)2 CH2=C ,84.16000366,0.6852,335.299,506.500,32.700,0.354,0.2670,0.0220057,0.00631724,-3.54954E-06,7.79216E-10,6.59015E-21,-52.26,77.61,-5.48E+01,4.30E-01,4.15E-05
763-69-9,E3EthxyC3ate,C7H14O3      ,Misc,(CH3)2 (CH2)2 CH2COO CH2O ,146.1860046,0.9557,438.148,609.000,27.200,0.462,0.5781,-0.469918,0.0082558,-9.51054E-06,6.19092E-09,-1.66724E-12,-633.00,-416.00,-6.33E+02,7.12E-01,5.44E-05
7637-07-2,BF3,BF3          ,Misc,,67.80970001,1.5730,173.348,260.898,49.852,0.124,0.4297,0.327349,0.001767274,-1.33159E-06,3.65007E-10,-7.43915E-15,-1135.98,,,5.35E-02,0.00E+00
764-13-6,25-M-24-C6==,C8H14        ,OD,(CH3)4 (CH=C)2 ,110.1940002,0.7649,407.648,602.039,29.179,0.455,0.3065,0.000055668,0.00570578,-2.09354E-06,0,0,6.41,,5.99E+00,5.02E-01,4.80E-05
7642-09-03,cis-3-hexene,C6H12,MISC,,84.161,0.6750,339.600,509.000,31.700,0.351,0.2790,0.696842956,0.001659557,5.65024E-06,-6.36019E-09,1.91954E-12,-47.61,83.01,-5.04E-02,4.32E-01,4.65E-08
7642-09-3,cis3-Hexene,C6H12        ,N,(CH3)2 (CH2)2 CH=CH ,84.16190338,0.6838,339.588,517.039,32.826,0.351,0.2250,0.157998,0.0056448,-2.01179E-06,0,0,-47.65,,-5.04E+01,4.32E-01,4.65E-05
7642-10-06,cis-3-HEPTENE,C7H14,MISC,,98.188,0.6980,368.900,545.000,28.400,0.421,0.2950,-0.258860553,0.006891779,-3.83927E-06,7.43757E-10,1.42176E-14,-68.70,89.40,-7.22E-02,5.24E-01,5.33E-08
7642-10-6,cis3C7=,C7H14        ,N,(CH3)2 CH=CH (CH2)3 ,98.1882019,0.7073,368.898,545.000,28.400,0.421,0.2949,-0.253282,0.00687752,-3.84975E-06,7.8446E-10,-6.59215E-15,-68.70,,-6.81E+01,5.09E-01,6.25E-05
764-35-2,2-Hexyne,C6H10        ,OD,(CH2)2 (CH3)2 C-=C ,82.145401,0.7373,357.670,549.000,35.300,0.331,0.2214,-0.13096,0.0066782,-5.2323E-06,2.40856E-09,-4.6585E-13,105.00,199.00,1.06E+02,2.99E-01,4.46E-05
764-42-1,FumarNitrile,C4H2N2       ,Misc,,78.0734024,1.0536,459.150,657.000,37.300,0.287,0.5566,0.15231,0.0037922,-2.92992E-06,8.7228E-10,-3.17195E-14,340.20,,3.40E+02,4.27E-02,5.34E-06
7646-78-8,SnCl4,SnCl4        ,MISC,,260.5280151,2.2390,387.250,591.900,37.500,0.351,0.2710,0.368709,7.52156E-05,-3.15441E-08,6.03192E-19,-1.65068E-22,-471.54,,-3.28E+01,-3.28E+01,-3.28E+01