CAS Number,Name,Formula,Type,UNIFAC,MW,SG6060,TB,Tc,Pc,Vc,OMEGA,CPA,CPB,CPC,CPD,CPE,HFORM25,GFORM25,GIBBSA,GIBBSB,GIBBSC
623-42-7,M-C4oate,C5H10O2      ,ACID,(CH3)2 CH2 CH2COO ,102.1340027,0.9037,375.898,554.400,34.700,0.340,0.3800,-0.0748641,0.00586394,-4.24503E-06,1.26384E-09,0,-450.68,-305.10,-4.50E+02,4.29E-01,4.03E-05
623-81-4,DESulphite,C4H10O3S     ,Misc,,138.1880035,1.0891,431.148,624.000,37.700,0.373,0.5065,0.0608453,0.0040202,-2.34896E-06,5.74588E-10,-3.94433E-14,-551.90,,-3.28E+01,-3.28E+01,-3.28E+01
624-24-8,methyl pentanoate,C6H12O2,MISC,,116.16,,567.000,31.900,416.300,0.000,0.0000,0,0,0,0,0,-471.10,-296.50,,,
624-29-3,1-ci4-MCC6,C8H16        ,N,(CH3)2 (CH2)4 (CH)2 ,112.2080002,0.7866,397.476,598.150,29.646,0.462,0.2340,-0.490299,0.007533,-4.10301E-06,8.79184E-10,-4.03203E-14,-176.79,37.95,-1.82E+02,7.22E-01,5.24E-05
624-48-6,DMMaleate,C6H8O4       ,Misc,(CH3)2 CH=CH (COO)2 ,144.1260071,1.1592,478.148,675.000,32.200,0.403,0.5624,-0.0225571,0.00534436,-5.56644E-06,3.28684E-09,-8.0728E-13,-620.80,,-6.21E+02,4.60E-01,2.63E-05
624-58-6,DIMETHYL MALEATE,C6H804,MISC,,144.127,1.1480,478.150,675.000,32.200,0.403,0.5620,-0.012828963,0.005286726,-5.44471E-06,3.17754E-09,-7.71889E-13,-620.80,-481.40,-6.23E-01,4.68E-01,2.18E-08
624-64-6,tr2-Butene,C4H8         ,N,(CH3)2 CH=CH ,56.10770035,0.6092,274.027,428.627,41.024,0.238,0.2182,0.3265,0.00456974,-1.2499E-06,-1.60208E-10,-7.40945E-22,-11.18,63.34,-1.25E+01,2.43E-01,3.25E-05
624-65-7,PropargylCl,C3H3Cl       ,Misc,,74.50930023,1.0249,331.000,541.000,53.000,0.211,0.1519,0.25383,0.00314476,-2.92638E-06,1.53189E-09,-3.40182E-13,159.00,170.00,1.60E+02,2.66E-02,2.18E-05
624-72-6,12-FluoroC2,C2H4F2       ,HAL,,66.05059814,1.0149,283.650,445.000,43.400,0.195,0.2224,0.31938,0.0025866,-4.3362E-07,-6.7232E-10,2.7642E-13,-447.70,-375.00,-4.47E+02,1.80E-01,2.11E-05
624-73-7,12-IodoC2,C2H4I2       ,Misc,(CH2)2 (I)2 ,281.8590088,3.3388,473.200,749.900,47.300,0.324,0.2230,0.0918646,0.000833424,-5.97342E-07,1.74418E-10,-4.7933E-22,66.52,78.49,0.00E+00,1.93E-01,5.98E-06
624-83-9,M_IsoCyanate,C2H3NO       ,Misc,,57.05199814,0.9568,312.000,488.000,54.800,0.202,0.3007,0.31762,0.00176002,9.4989E-07,-1.47588E-09,4.49535E-13,-62.40,-17.70,-6.18E+01,2.01E-01,2.44E-05
624-89-5,M-E-Sulfide,C3H8S        ,MISC,CH3S CH2 CH3 ,76.15670013,0.8378,339.799,532.000,42.600,0.263,0.2160,0.256599,0.0037984,-1.5885E-06,1.69095E-10,0,-59.66,11.92,-5.53E+01,2.02E-01,7.36E-05
624-91-9,METHYL NITRITE,CH3N02,MISC,,61.04,0.0000,261.160,0.000,0.000,0.000,0.0000,0.206307339,0.003298984,-1.85059E-06,3.68005E-10,0,-64.02,1.00,-8.56E-02,2.20E-01,9.29E-09
624-92-0,diMdiSulphid,C2H6S2       ,MISC,(CH3S)2 ,94.19960022,1.0684,382.890,605.000,47.000,0.358,0.2385,0.0519176,0.00594914,-2.10173E-06,0,0,-0.87,14.73,-1.86E+01,8.64E-02,8.37E-05
625-27-4,2M-2-pentene,C6H12        ,N,(CH3)3 CH2 CH=C ,84.16190338,0.6905,340.450,517.593,32.826,0.351,0.2721,0.13269,0.00565,-2.01926E-06,0,0,-66.53,71.21,-6.24E+01,4.33E-01,4.61E-05
62-53-3,Aniline,C6H7N        ,NI,(ACH)5 ACNH2 ,93.12870026,1.0254,457.600,699.000,53.100,0.274,0.3840,-0.434999,0.00686066,-5.51526E-06,1.75459E-09,0,86.92,167.90,8.48E+01,2.67E-01,2.26E-05
625-44-5,MIsoBEther,C5H12O       ,Misc,(CH3)2 CH3O CH2 CH ,88.14929962,0.7351,331.700,497.000,34.100,0.329,0.3101,-0.179724,0.0071192,-5.97963E-06,3.37088E-09,-9.47965E-13,-266.00,-107.00,-2.66E+02,5.16E-01,5.20E-05
625-45-6,MetxyActAcid,C3H6O3       ,Misc,CH2 CH3O COOH ,90.07839966,1.1806,478.260,691.000,49.800,0.251,0.6262,-0.623615,0.00996824,-1.88244E-05,1.94623E-08,-7.78965E-12,-563.00,-457.00,-5.63E+02,3.47E-01,2.66E-05
625-54-7,EIsoPEther,C5H12O       ,Misc,CH (CH3)3 CH2O ,88.14969635,0.7283,326.150,489.000,34.100,0.329,0.3056,-0.012553,0.0061444,-3.4089E-06,5.5108E-10,1.2629E-13,-285.80,,-2.85E+02,5.19E-01,4.92E-05
625-58-1,ETHYL NITRATE,C2H5N03,MISC,,91.066,0.0000,360.360,0.000,0.000,0.000,0.0000,0.038763095,0.004277228,-3.01133E-06,8.40467E-10,0,-153.97,-36.86,-1.56E-01,3.96E-01,1.39E-08
62-56-6,Thiourea,CH4N2S       ,Misc,,76.12220001,0.9335,536.000,854.000,82.300,0.248,0.3586,0.2685,0.0029904,-2.38956E-06,1.0724E-09,-2.08115E-13,-25.00,,-2.50E+01,1.81E-01,2.15E-05
625-69-4,24-C3Diol,C5H12O2      ,Misc,(CH)2 CH2 (CH3)2 (OH)2 ,104.1490021,0.9681,474.150,629.000,43.300,0.325,1.1223,-0.17135,0.0069296,-5.9979E-06,2.83836E-09,-5.4965E-13,-482.30,,-4.82E+02,5.76E-01,4.69E-05
625-80-9,iP-Sulphide,C6H14S       ,MISC,CHS CH (CH3)4 ,118.2360001,0.8191,393.200,585.700,32.200,0.414,0.3160,-0.0427858,0.00613514,-4.38351E-06,1.308E-09,1.80351E-21,-141.25,27.11,-1.36E+02,5.20E-01,9.58E-05
626-26-6,BUTYL-HEXADECYL-SULFIDE,C20H42S,MISC,,314.612,0.0000,671.160,832.330,10.270,1.210,0.7950,-0.000467242,0.00603251,-3.2281E-06,6.75276E-10,0,-414.63,148.41,-4.03E-01,1.78E+00,2.50E-07
626-93-7,2-Hexanol,C6H14O       ,OL,(CH3)2 (CH2)3 CH OH ,102.177002,0.8158,411.000,586.200,40.500,0.381,0.6306,0.0470848,0.00576548,-2.94585E-06,5.3102E-10,-2.26999E-22,-317.80,-150.20,-3.17E+02,5.77E-01,6.06E-05
626-95-9,14-C5diol,C5H12O2      ,Misc,CH3 (CH2)3 CH (OH)2 ,104.1500015,0.9933,494.850,654.781,44.091,0.347,1.1725,0.0695448,0.005307,-2.99763E-06,6.4714E-10,2.63878E-20,-456.27,,-4.56E+02,5.75E-01,0.00E+00
627-05-4,1-NitroC4,C4H9NO2      ,MISC,(CH2)2 CH3 CH2NO2 ,103.1200027,0.9762,426.100,622.000,37.000,0.342,0.4520,-0.0404771,0.00505346,-0.000003102,7.41316E-10,-1.6758E-21,-143.92,10.13,-1.47E+02,5.17E-01,3.15E-05
627-13-4,PROPYL NITRATE,C3H7N03,MISC,,105.093,0.0000,383.160,0.000,0.000,0.000,0.0000,0.067378417,0.004436737,-2.8824E-06,7.30001E-10,0,-174.05,-27.32,-1.77E-01,4.95E-01,1.96E-08
627-19-0,1-Pentyne,C5H8         ,OD,CH-=C (CH2)2 CH3 ,68.12000275,0.6955,313.299,493.497,40.500,0.278,0.1640,0.265259,0.0051542,-2.80831E-06,6.01576E-10,-1.02508E-21,144.40,209.20,1.45E+02,2.09E-01,3.14E-05
627-20-3,cis2-Pentene,C5H10        ,N,(CH3)2 CH2 CH=CH ,70.13500214,0.6602,310.083,475.928,36.541,0.302,0.2406,0.0054891,0.0053986,-1.44056E-06,-9.26184E-10,4.71743E-13,-28.09,73.50,-3.03E+01,3.29E-01,4.09E-05
627-21-4,2-Pentyne,C5H8         ,OD,C-=C (CH3)2 CH2 ,68.12000275,0.7159,329.200,522.000,42.300,0.278,0.1860,0.179035,0.00490984,-2.30372E-06,3.7149E-10,6.58035E-21,128.87,194.18,1.28E+02,2.12E-01,3.26E-05
627-26-9,t-CrotoNitrl,C4H5N        ,Misc,CH2=CH CH2CN ,67.08959961,0.8167,394.380,586.000,38.700,0.282,0.3977,-0.0110965,0.0050157,-3.41406E-06,1.03532E-09,-1.06266E-13,140.50,184.46,1.41E+02,1.39E-01,2.26E-05
627-58-7,25-M-15-C6==,C8H14        ,OD,(CH3)2 (CH2)2 (CH2=C)2 ,110.1940002,0.7447,387.483,583.705,27.964,0.461,0.2134,0.0321559,0.0056918,-2.07488E-06,0,0,22.83,,2.22E+01,4.99E-01,4.50E-05
627-98-5,5M1C6ol,C7H16O       ,Misc,(CH3)2 CH (CH2)4 OH ,116.2030029,0.8128,445.148,605.000,30.300,0.432,0.7807,0.0415304,0.00561258,-1.88396E-06,-9.65544E-10,6.3572E-13,-342.00,-127.00,-3.42E+02,7.00E-01,6.67E-05
628-21-7,"1,2-DIIODOBUTANE",C4H812,MISC,,309.916,2.2800,476.760,726.410,37.270,0.430,0.2810,0.074558913,0.001353948,-9.19701E-07,2.48787E-10,0,11.92,82.09,-5.90E-02,3.97E-01,1.19E-08
628-28-4,B-M-Ether,C5H12O       ,Misc,CH3 (CH2)3 CH3O ,88.15000153,0.7447,343.299,512.799,33.700,0.329,0.3160,0.0805288,0.00564778,-2.91362E-06,5.70024E-10,0,-278.75,,-2.78E+02,5.36E-01,5.18E-05
628-29-5,C1nC4Sulfide,C5H12S       ,Misc,(CH2)3 CH3 CH3S ,104.2160034,0.8474,396.580,593.000,34.700,0.360,0.3229,0.12274,0.0046474,-1.73211E-06,-6.4708E-10,4.61335E-13,-102.00,26.65,-1.01E+02,4.15E-01,5.28E-05
628-32-0,E-P-Ether,C5H12O       ,Misc,(CH3)2 (CH2)2 CH2O ,88.15000153,0.7327,336.398,500.200,33.700,0.339,0.3330,0.0805288,0.00564778,-2.91362E-06,5.70024E-10,0,-272.19,-115.00,-2.72E+02,5.14E-01,5.18E-05
628-41-1,14CC6==,C6H8         ,MISC,(CH2)2 (CH=CH)2 ,80.12950134,0.8605,360.148,569.000,47.300,0.277,0.2048,-0.266778,0.00568816,-2.42595E-06,-2.74305E-10,3.31677E-13,109.90,,1.10E+02,2.41E-01,3.74E-05
628-55-7,di-i-B_Ether,C8H18O       ,Misc,(CH)2 CH2 (CH3)4 CH2O ,130.2299957,0.7578,395.760,562.000,25.300,0.487,0.4243,-0.31519,0.0077112,-6.1626E-06,2.87612E-09,-6.253E-13,-347.10,,-3.47E+02,8.18E-01,7.33E-05
628-63-7,nPentylAceta,C7H14O2      ,ES,CH3 (CH2)4 CH3COO ,130.1860046,0.8817,422.148,597.000,27.000,0.442,0.4896,-0.116658,0.00600228,-3.83721E-06,9.48664E-10,0,-505.48,-303.50,-5.05E+02,6.64E-01,5.64E-05
628-71-7,1-Heptyne,C7H12        ,OD,CH-=C (CH2)4 CH3 ,96.16970062,0.7375,372.898,559.700,32.000,0.389,0.2930,0.110281,0.00584068,-3.40293E-06,7.96888E-10,4.52687E-21,103.00,226.94,1.01E+02,4.10E-01,3.95E-05
628-73-9,CaproNitrile,C6H11N       ,Misc,CH3 (CH2)3 CH2CN ,97.16100311,0.8098,436.799,622.000,32.500,0.398,0.5240,0.18149,0.00516768,-2.72773E-06,5.44904E-10,0,-2.29,122.84,-1.87E+00,4.39E-01,4.24E-05
628-76-2,15ClC5,C5H10Cl2     ,Misc,(CH2Cl)2 (CH2)3 ,141.0390015,1.1062,453.148,663.000,31.900,0.422,0.3851,0.0113863,0.00427606,-3.52011E-06,1.6714E-09,-3.47645E-13,-200.00,-58.20,-1.98E+02,4.51E-01,6.34E-05
628-80-8,MPentylEther,C6H14O       ,Misc,CH3 (CH2)4 CH3O ,102.177002,0.7507,372.000,546.500,30.300,0.392,0.3470,0.18235,0.0052248,-2.23775E-06,2.39148E-10,0,-299.39,,-2.99E+02,6.30E-01,6.00E-05
628-81-9,E-B-Ether,C6H14O       ,Misc,(CH3)2 (CH2)3 CH2O ,102.177002,0.7551,365.398,531.000,30.300,0.390,0.4000,0.231407,0.0052561,-2.47577E-06,4.07092E-10,0,-292.30,-107.00,-2.92E+02,6.07E-01,5.80E-05
628-87-5,22IminoBisAN,C4H5N3       ,Misc,,95.10350037,0.9823,527.000,731.000,35.400,0.357,0.7192,0.208983,0.00417696,-3.35784E-06,1.49434E-09,-2.89346E-13,252.40,,2.52E+02,2.77E-01,1.64E-05
628-92-2,CC7=,C7H12        ,OD,(CH2)5 CH=CH ,96.17230225,0.8316,387.500,598.000,40.100,0.336,0.2517,-0.295146,0.00605904,-2.02731E-06,-7.8196E-10,4.84884E-13,-9.20,,-9.04E+00,4.75E-01,5.39E-05
628-96-6,EG_Dinitrate,C2H4N2O6     ,Misc,,152.0630035,1.4967,472.148,654.000,40.400,0.362,0.7904,-0.17523,0.00470858,-4.73742E-06,2.37843E-09,-4.80567E-13,-165.60,,-3.28E+01,-3.28E+01,-3.28E+01
629-04-9,1BromoC7,C7H15Br      ,Misc,(CH2)6 Br CH3 ,179.1000061,1.1455,452.049,651.000,30.800,0.477,0.4435,-0.0451328,0.00421054,-2.67586E-06,6.64904E-10,2.21667E-14,-168.00,13.70,-1.68E+02,5.91E-01,5.94E-05
629-05-0,1-Octyne,C8H14        ,OD,CH-=C (CH2)5 CH3 ,110.1959991,0.7505,399.398,586.900,29.600,0.445,0.3380,0.087812,0.00595588,-3.4515E-06,7.94068E-10,2.48504E-21,82.42,,7.97E+01,5.07E-01,4.55E-05
629-11-8,16-C6diol,C6H14O2      ,Misc,(CH2)6 (OH)2 ,118.1760025,0.9891,516.150,670.000,36.100,0.398,1.2675,-0.0125443,0.0058514,-3.8931E-06,1.29669E-09,-1.64573E-13,-469.80,-266.49,-4.69E+02,6.37E-01,6.04E-05
629-14-1,12DiEthoxyC2,C6H14O2      ,Misc,(CH2)2 (CH3)2 (CH2O)2 ,118.1760025,0.8484,394.550,561.000,29.300,0.402,0.4818,-0.28828,0.0072924,-6.5988E-06,3.63208E-09,-9.218E-13,-408.20,,-4.08E+02,6.68E-01,5.88E-05
629-19-6,P-diSulphide,C6H14S2      ,MISC,(CH2S)2 (CH2)2 (CH3)2 ,150.3000031,0.9645,464.700,672.000,27.500,0.479,0.3700,0.15129,0.0042911,-2.38728E-06,5.38816E-10,3.04903E-21,-117.19,36.99,-1.10E+02,4.57E-01,1.22E-04
629-20-9,1357CyOcttrn,C8H8         ,AU,,104.1600037,0.9253,413.200,642.598,41.400,0.345,0.2440,-0.400209,0.00657322,-4.79895E-06,1.3915E-09,4.36664E-21,298.03,369.91,2.96E+02,2.39E-01,2.68E-05
629-33-4,n-C6_Formate,C7H14O2      ,ES,(CH2)5 CH3 HCOO ,130.1869965,0.8842,428.650,607.000,28.000,0.442,0.4830,-0.31425,0.0073498,-6.7443E-06,3.44252E-09,-7.23E-13,-469.00,,-4.69E+02,6.56E-01,5.51E-05
6294-31-1,HexylSulphid,C12H26S      ,MISC,CH2S (CH2)9 (CH3)2 ,202.3990021,0.8447,552.200,733.700,18.100,0.762,0.6310,0.0477223,0.0055573,-2.75636E-06,5.20488E-10,-4.16577E-21,-249.74,82.89,-2.42E+02,1.04E+00,1.66E-04
6294-34-4,Bis2ClE2ClEP,C6H12Cl3O3P  ,Misc,,269.4909973,-32.7975,-32493.850,-32493.850,-327.670,-32767.000,-32767.0000,-0.013722,0.0036886,-3.0282E-06,1.25968E-09,-2.1413E-13,-1050.00,,-3.28E+01,-3.28E+01,-3.28E+01
629-45-8,B-diSulphide,C8H18S2      ,MISC,(CH2S)2 (CH2)4 (CH3)2 ,178.3500061,0.9425,504.398,704.200,26.100,0.591,0.5290,0.114331,0.0046963,-2.64692E-06,6.0066E-10,3.47024E-21,-158.40,,-1.51E+02,6.43E-01,1.43E-04
629-50-5,n-C13,C13H28       ,PN,(CH3)2 (CH2)11 ,184.3670044,0.7595,508.579,675.799,17.235,0.780,0.6230,-0.0567345,0.0067528,-3.74901E-06,8.08152E-10,-6.7396E-22,-311.69,57.81,-3.18E+02,1.23E+00,9.26E-05
629-59-4,n-C14,C14H30       ,PN,(CH3)2 (CH2)12 ,198.3800049,0.7636,526.658,694.000,16.202,0.830,0.6790,-0.0553483,0.0067446,-3.74178E-06,8.05508E-10,-2.21885E-22,-332.29,66.09,-3.39E+02,1.33E+00,9.84E-05
629-62-9,n-C15,C15H32       ,PN,(CH3)2 (CH2)13 ,212.4100037,0.7711,543.768,707.000,15.168,0.880,0.7060,-0.0561178,0.00674636,-3.75309E-06,8.09728E-10,-3.14932E-22,-352.99,74.37,-3.61E+02,1.43E+00,1.05E-04
629-65-2,BUTYL-HEPTYL-SULFIDE,C11H24S,MISC,,188.371,0.8410,533.160,717.910,19.630,0.706,0.5920,0.057190332,0.005461563,-2.66363E-06,4.91095E-10,0,-229.16,72.72,-2.22E-01,9.40E-01,1.56E-07
629-73-2,1-Hexadecene,C16H32       ,N,CH3 (CH2)13 CH2=CH ,224.4320068,0.7846,557.000,717.000,13.300,0.820,0.7502,0.103738,0.00576474,-2.13203E-06,-4.18816E-11,-1.14472E-22,-248.00,171.50,-2.55E+02,1.40E+00,1.04E-04
629-74-3,1-Hexadecyne,C16H30       ,MISC,CH-=C (CH2)13 CH3 ,222.4100037,0.8000,557.200,724.299,14.500,0.893,0.6610,-0.0025988,0.006439,-3.78894E-06,8.86592E-10,3.70925E-21,-82.47,302.67,-8.92E+01,1.28E+00,9.39E-05
629-76-5,1C15ol,C15H32O      ,Misc,CH3 (CH2)14 OH ,228.4170074,0.8236,573.150,752.000,16.000,0.854,0.7093,0.132231,0.00536058,-1.00934E-06,-1.82268E-09,8.46845E-13,-501.80,-61.46,-5.01E+02,1.45E+00,1.23E-04
629-78-7,n-C17,C17H36       ,PN,(CH3)2 (CH2)15 ,240.4570007,0.7809,575.299,733.370,13.169,1.006,0.7700,-0.0580973,0.00675376,-3.77646E-06,8.20084E-10,2.10877E-22,-394.19,90.93,-4.03E+02,1.62E+00,1.17E-04
629-82-3,DinC8Ether,C16H34O      ,Misc,CH2O (CH2)13 (CH3)2 ,242.4450073,0.8098,559.650,707.000,14.400,0.910,0.9336,-0.144504,0.00706298,-4.82625E-06,1.74724E-09,-2.67111E-13,-498.00,-23.30,-4.97E+02,1.55E+00,1.32E-04
629-89-0,1-Octadecyne,C18H34       ,MISC,CH-=C (CH2)15 CH3 ,250.4700012,0.8059,586.200,747.299,12.800,1.005,0.7150,-0.0140935,0.00650094,-3.84321E-06,9.0664E-10,2.01622E-21,-123.68,319.49,-1.31E+02,1.48E+00,1.06E-04
629-92-5,n-C19,C19H40       ,PN,(CH3)2 (CH2)17 ,268.5100098,0.7883,603.799,755.929,11.169,1.130,0.8270,-0.0576885,0.0067483,-3.78003E-06,8.2118E-10,-1.67752E-22,-435.39,107.49,-4.45E+02,1.82E+00,1.29E-04
629-94-7,n-C21,C21H44       ,PN,(CH3)2 (CH2)19 ,296.5830078,0.7950,629.650,778.000,11.100,1.245,0.9420,0.2843,0.0057248,-2.11928E-06,0,0,-477.80,,-4.77E+02,2.01E+00,8.84E-08
629-96-9,1-Eicosanol,C20H42O      ,Misc,CH3 (CH2)19 OH ,298.553009,0.8167,627.000,770.000,11.000,0.121,1.1405,-0.042161,0.00653574,-3.74709E-06,8.43272E-10,0,-608.08,-19.41,-6.18E+02,1.96E+00,1.35E-04
629-97-0,n-C22,C22H46       ,PN,(CH3)2 (CH2)20 ,310.5880127,0.7975,641.760,787.000,10.600,1.301,0.9722,0.2908,0.0057266,-2.12153E-06,0,0,-498.50,,-4.97E+02,2.11E+00,8.65E-07
629-99-2,n-C25,C25H52       ,PN,(CH3)2 (CH2)23 ,352.6700134,0.8042,675.039,812.000,9.500,1.465,1.1053,0.3086,0.0057308,-2.12714E-06,0,0,-560.70,,-5.59E+02,2.40E+00,6.63E-08
630-01-3,n-C26,C26H54       ,PN,(CH3)2 (CH2)24 ,366.6900024,0.8061,685.369,819.000,9.100,1.518,1.1544,0.3145,0.005732,-2.12864E-06,0,0,-581.40,,-5.81E+02,2.50E+00,-3.08E-06
630-02-4,n-C28,C28H58       ,PN,(CH3)2 (CH2)26 ,394.7390137,0.8091,704.760,832.000,8.500,1.622,1.2375,0.324199,0.005732,-2.13161E-06,0,0,-622.80,,-6.21E+02,2.69E+00,-1.49E-07
630-03-5,n-C29,C29H60       ,PN,(CH3)2 (CH2)27 ,408.7690125,0.8111,713.929,838.000,8.260,1.673,1.2653,0.329299,0.005735,-2.13275E-06,0,0,-643.50,,-6.42E+02,2.78E+00,1.44E-06
630-06-8,n-HexatriC30,C36H74       ,MISC,(CH2)34 (CH3)2 ,506.9840088,0.8182,770.150,874.000,6.800,2.090,1.5260,-0.19458,0.0075184,-5.3166E-06,2.03676E-09,-3.3714E-13,-788.50,,-7.87E+02,3.38E+00,2.77E-04
630-08-0,CO,CO           ,GAS,,28.0109005,0.8001,81.700,132.949,34.988,0.089,0.0930,1.0739,-0.0003453,9.06678E-07,-5.50104E-10,1.00178E-13,-110.59,-137.16,-1.11E+02,-8.95E-02,9.74E-07
630-20-6,1112ClC2,C2H2Cl4      ,Misc,CCl3 CH2 Cl ,167.8480072,1.5489,403.648,624.000,40.200,0.325,0.2422,0.152551,0.00215346,-2.42843E-06,1.39256E-09,-3.18677E-13,-149.40,-80.30,-1.47E+02,2.10E-01,4.81E-05
630-76-2,TetraPhnylC1,C25H20       ,MISC,C (AC)4 (ACH)20 ,320.4339905,1.3501,743.000,983.000,17.900,0.966,0.6794,-0.63584,0.0072298,-0.000006327,2.86284E-09,-5.302E-13,397.80,,3.98E+02,7.79E-01,8.34E-05
631-36-7,TetC2_Silane,C8H20Si      ,Misc,(CH2)4 (CH3)4 SI ,144.3320007,0.7708,426.560,606.000,24.000,0.587,0.4002,-0.68453,0.0085802,-7.3341E-06,3.45952E-09,-6.8375E-13,-284.00,,-2.84E+02,8.56E-01,0.00E+00
632-50-8,1122-TetPhC2,C26H22       ,MISC,(CH)2 (AC)4 (ACH)20 ,334.4609985,1.1258,633.150,827.000,16.700,1.022,0.7322,-0.65036,0.0074748,-6.8586E-06,3.34684E-09,-6.768E-13,357.00,,3.57E+02,8.51E-01,9.25E-05
632-51-9,TetPhenylC2=,C26H20       ,MISC,C=C (AC)4 (ACH)20 ,332.4450073,1.3476,760.000,996.000,17.100,1.020,0.7285,-0.47697,0.006858,-6.1317E-06,2.86772E-09,-5.5025E-13,438.00,665.00,4.38E+02,7.38E-01,7.37E-05
63444-56-4,4-i-BStyrene,C12H16       ,A,CH CH2 (CH3)2 CH2=CH (AC)2 (ACH)4 ,160.2590027,0.8857,524.000,735.000,23.800,0.621,0.4631,-0.36296,0.0072356,-5.9586E-06,2.63048E-09,-4.87285E-13,44.00,,4.45E+01,6.04E-01,6.23E-05
635-81-4,1245-E-BZ,C14H22       ,A,(ACH)2 (ACCH2)4 (CH3)4 ,190.3300018,0.8828,523.200,706.900,19.300,0.711,0.5620,0.105814,0.00550254,-2.81447E-06,4.78576E-10,4.01695E-21,-123.26,155.35,-1.28E+02,9.27E-01,6.91E-05
6362-80-7,24DiPH4MC5=1,C18H20       ,MISC,CH2=C CH2 (CH3)2 C (AC)2 (ACH)10 ,236.3560028,0.9859,614.000,835.000,20.000,0.839,0.5467,-0.602442,0.00806142,-7.48296E-06,3.66468E-09,-7.377E-13,161.00,,1.61E+02,7.98E-01,7.07E-05
637-92-3,ETBE,C6H14O       ,Misc,(CH3)4 CH2O C ,102.1800003,0.7633,346.250,517.114,31.140,0.379,0.2917,-0.0150622,0.00622924,-3.55656E-06,7.56524E-10,4.79039E-20,-308.14,,-3.08E+02,6.89E-01,0.00E+00
638-04-0,1-ci3-MCC6,C8H16        ,N,(CH3)2 (CH2)4 (CH)2 ,112.2080002,0.7694,393.243,590.927,29.646,0.448,0.2240,-0.482599,0.00708438,-2.40086E-06,-1.04258E-09,6.4473E-13,-184.89,29.83,-1.91E+02,7.23E-01,5.11E-05
638-46-0,B-E-Sulphide,C6H14S       ,MISC,CH2S (CH2)3 (CH3)2 ,118.2360001,0.8423,417.398,607.000,30.000,0.426,0.3740,0.121462,0.00480004,-2.17387E-06,3.56189E-10,5.62865E-21,-125.19,32.01,-1.20E+02,4.78E-01,1.04E-04
638-49-3,nPentylForma,C6H12O2      ,ACID,CH3 (CH2)4 HCOO ,116.1600037,0.9028,403.600,576.000,34.600,0.401,0.5380,-0.237499,0.00678396,-5.46516E-06,1.83028E-09,0,-384.97,-276.40,-3.85E+02,5.89E-01,4.77E-05
638-53-9,nC13oicAcid,C13H26O2     ,Misc,CH3 (CH2)11 COOH ,214.3480072,0.8756,585.250,744.000,18.100,0.758,1.0042,-0.0740327,0.0065275,-4.7508E-06,1.90778E-09,-3.40876E-13,-660.20,,-6.60E+02,1.23E+00,9.80E-05
638-67-5,n-C23,C23H48       ,PN,(CH3)2 (CH2)21 ,324.6090088,0.8006,653.369,796.000,10.200,1.356,1.0262,0.2963,0.005728,-2.12375E-06,0,0,-519.20,,-5.18E+02,2.20E+00,-5.08E-08
638-68-6,n-C30,C30H62       ,PN,(CH3)2 (CH2)28 ,422.7990112,0.8127,722.869,863.000,8.680,1.724,1.3072,0.334299,0.005736,-2.13386E-06,0,0,-664.20,,-6.62E+02,2.85E+00,8.36E-07
63-91-2,L-PhAlanine,C9H11NO2     ,Misc,(ACH)5 ACCH2 CHNH2 COOH ,165.1920013,1.1341,628.000,854.000,34.700,0.506,0.8515,-0.11635,0.005282,-3.8214E-06,1.24368E-09,-1.26205E-13,-312.90,,-3.13E+02,5.70E-01,4.28E-05
63938-10-3,Cl-1122-FC2,C2HClF4      ,Misc,CHCl CF2 (F)2 ,136.4750061,1.3705,263.000,399.898,37.200,0.244,0.2810,0.290889,0.001421332,-1.10991E-06,2.97227E-10,0,-898.82,,-8.97E+02,2.30E-01,3.59E-05
64-17-5,Ethanol,C2H6O        ,OL,CH3 CH2 OH ,46.06990051,0.7967,351.398,513.900,61.470,0.167,0.6444,0.19577,0.00465038,-1.82237E-06,2.98216E-11,0,-234.99,-167.73,-2.36E+02,2.19E-01,2.57E-05
64-18-6,FormicAcid,CH2O2        ,Misc,HCOOH ,46.02500153,1.2263,373.799,570.000,55.000,0.112,0.3525,0.254589,0.00295254,-1.82866E-06,4.38508E-10,0,-378.89,-35.06,-3.79E+02,9.14E-02,9.52E-06
64-19-7,AceticAcid,C2H4O2       ,ES,CH3 COOH ,60.05170059,1.0525,391.100,592.700,57.700,0.171,0.4470,0.0806502,0.00424716,-2.92103E-06,8.24648E-10,0,-435.08,-374.27,-4.36E+02,1.93E-01,1.64E-05