CAS Number,Name,Formula,Type,UNIFAC,MW,SG6060,TB,Tc,Pc,Vc,OMEGA,CPA,CPB,CPC,CPD,CPE,HFORM25,GFORM25,GIBBSA,GIBBSB,GIBBSC
1814-88-6,11122-FC3,C3H3F5       ,Misc,CH3 CF3 CF2 ,134.0460052,1.1653,255.699,380.100,31.300,0.273,0.3080,-0.120498,0.00399084,-3.05178E-06,1.14876E-09,0,-1103.30,,,3.76E-01,-2.48E-06
1821-27-8,44-2N2PhAmin,C12H9N3O4    ,Misc,,259.2210083,1.3063,709.000,926.000,26.200,0.710,1.0247,0.65063,0.00062504,2.58498E-06,-2.88744E-09,8.557E-13,174.50,,1.77E+02,7.74E-01,6.22E-05
18435-45-5,1-Nonadecene,C19H38       ,N,CH3 (CH2)16 CH2=CH ,266.4890137,0.7895,601.700,754.799,11.650,0.988,0.8737,0.0771363,0.00592444,-2.40797E-06,9.86888E-11,-2.83599E-22,-309.60,196.73,-3.19E+02,1.69E+00,1.22E-04
18435-53-5,1-C30=,C30H60       ,MISC,CH3 (CH2)27 CH2=CH ,420.7780151,0.8076,720.900,845.603,7.309,1.716,0.9211,0.025089,0.00623554,-2.94714E-06,3.73592E-10,-3.42756E-22,-537.10,,-5.37E+02,2.71E+00,2.18E-04
1860-27-1,i-P_B_Ether,C7H16O       ,Misc,CH (CH2)2 (CH3)3 CH2O ,116.2030029,0.7559,382.300,549.000,27.400,0.435,0.4032,-0.30615,0.0078954,-6.7785E-06,3.44868E-09,-7.91E-13,-326.90,-128.83,-3.27E+02,7.17E-01,6.38E-05
18720-65-5,5-M-3-C7ol,C8H18O       ,Misc,(CH3)3 (CH2)3 (CH)2 OH ,130.2310028,0.7831,445.000,621.200,28.600,0.490,0.5780,0.19285,0.00518226,-2.74833E-06,1.55052E-09,0,-371.24,,-3.72E+02,8.06E-01,6.85E-05
18835-33-1,1-C26=,C26H52       ,N,CH3 (CH2)23 CH2=CH ,364.678009,0.8026,684.299,818.960,8.542,1.516,0.9589,0.038919,0.0061528,-2.80383E-06,3.00537E-10,-8.05895E-22,-454.54,,-4.54E+02,2.33E+00,1.89E-04
18835-34-2,1-C28=,C28H56       ,MISC,CH3 (CH2)25 CH2=CH ,392.730011,0.8053,703.200,832.833,7.887,1.617,0.9490,0.03151,0.0061971,-2.88059E-06,3.39672E-10,1.31876E-22,-495.82,,-4.95E+02,2.52E+00,2.03E-04
18835-35-3,1-C29=,C29H58       ,MISC,CH3 (CH2)26 CH2=CH ,406.75,0.8065,713.200,840.030,7.554,1.673,0.9367,0.0281892,0.00621704,-2.91505E-06,3.57219E-10,-6.2224E-22,-516.46,,-5.16E+02,2.61E+00,2.10E-04
1889-67-4,23MDiPHC4,C18H22       ,AD,(CH3)4 (C)2 (AC)2 (ACH)10 ,238.3730011,1.0226,589.000,805.000,19.900,0.781,0.5208,-0.69554,0.00849052,-7.75545E-06,3.71821E-09,-7.36995E-13,59.20,347.00,5.85E+01,9.44E-01,7.86E-05
18970-44-0,1-E-2-i-P-BZ,C11H16       ,A,ACCH2 ACCH (CH3)3 (ACH)4 ,148.2480011,0.8897,466.150,666.000,26.700,0.530,0.4176,-0.41476,0.0075784,-6.1938E-06,2.68708E-09,-4.88725E-13,-47.22,,-4.69E+01,6.35E-01,6.21E-05
19201-34-4,DilacticAcid,C6H10O5      ,Misc,(COOH)2 CH-O (CH3)2 CH ,162.1419983,1.1047,489.000,660.000,34.800,0.436,0.9068,0.0000209,0.00384,-0.000001056,-8.64E-10,4.26E-13,-1022.00,,,6.76E-01,4.14E-05
19269-28-4,3MC6al,C7H14O       ,Misc,(CH3)2 CH (CH2)3 CHO ,114.1880035,0.8250,416.000,593.000,28.500,0.434,0.4640,0.069636,0.00568594,-3.23106E-06,7.6164E-10,-3.7112E-14,-271.00,,-2.70E+02,5.87E-01,5.63E-05
19313-61-2,,,MISC,,,,,,,,,FALSE,FALSE,FALSE,FALSE,FALSE,,,,,
19374-46-0,1tr2ci3-MCC5,C8H16        ,N,(CH3)3 (CH2)2 (CH)3 ,112.2080002,0.7571,383.561,572.039,28.268,0.416,0.2546,-0.0294869,0.0057,-2.08646E-06,0,0,-112.67,,-1.12E+02,7.35E-01,7.26E-05
19398-77-7,34-Ehexane,C10H22       ,PN,(CH3)4 (CH2)4 (CH)2 ,142.2850037,0.7542,437.039,618.927,23.304,0.519,0.4040,0.1102,0.0056986,-2.08385E-06,0,0,-260.29,43.93,-2.54E+02,9.73E-01,7.51E-05
19484-26-5,1-TRIDECANETHIOL,C13H28S,MISC,,216.424,0.8420,563.960,742.130,17.330,0.818,0.6730,0.032958452,0.005778472,-3.10807E-06,6.59261E-10,0,-273.26,86.65,-2.65E-01,1.13E+00,1.75E-07
1961-96-2,1PHIndene,C15H12       ,MISC,CH CH=CH (AC)3 (ACH)9 ,192.2590027,1.0839,610.000,865.000,27.600,0.627,0.4690,-0.321993,0.00562076,-3.11616E-06,3.58238E-10,1.60353E-13,246.00,,2.45E+02,7.51E-01,4.10E-05
2004-70-8,1-tr3-C5==,C5H8         ,OD,CH3 CH2=CH CH=CH ,68.1190033,0.6805,315.170,496.483,39.921,0.276,0.1750,0.102289,0.005642,-2.00801E-06,0,0,77.87,146.73,7.64E+01,2.28E-01,2.56E-05
20063-97-2,trans-2-C10=,C10H20       ,N,CH=CH (CH3)2 (CH2)6 ,140.2689972,0.8048,446.000,619.000,21.800,0.571,0.4820,-0.16107,0.0071066,-4.8519E-06,1.7938E-09,-2.8851E-13,-136.00,,-1.35E+02,7.94E-01,8.19E-05
2016-42-4,nC14Amine,C14H31N      ,Misc,(CH2)12 CH3 CH2NH2 ,213.4060059,0.7974,564.450,722.299,16.600,0.887,0.8583,-0.118282,0.0071075,-4.82652E-06,1.74879E-09,-2.70454E-13,-298.00,133.00,-2.97E+02,1.41E+00,1.20E-04
2016-57-1,nDecylAmine,C10H23N      ,Misc,(CH2)8 CH3 CH2NH2 ,157.2980042,0.7916,493.648,663.000,21.800,0.629,0.6686,-0.0690515,0.00683038,-4.3695E-06,1.42491E-09,-1.93094E-13,-215.00,99.76,-2.14E+02,1.03E+00,9.11E-05
2027-19-2,2-PROPYLNAPHTHALENE,C13H14,MISC,,170.254,0.9730,546.660,772.440,27.560,0.578,0.4880,-0.312204119,0.006350512,-4.38786E-06,1.19504E-09,0,73.47,231.00,7.05E-02,5.23E-01,4.53E-08
20278-84-6,245-Mheptane,C10H22       ,PN,(CH3)5 (CH2)2 (CH)3 ,142.2850037,0.7451,429.648,606.927,22.408,0.544,0.4415,0.12969,0.005692,-2.07527E-06,0,0,-261.79,30.54,-2.66E+02,9.71E-01,7.43E-05
20278-85-7,235-Mheptane,C10H22       ,PN,(CH3)5 (CH2)2 (CH)3 ,142.2850037,0.7483,433.871,612.872,22.408,0.547,0.4495,0.126498,0.005694,-2.07824E-06,0,0,-261.79,30.54,-2.66E+02,9.71E-01,7.43E-05
20278-87-9,334-Mheptane,C10H22       ,PN,(CH3)5 (CH2)3 CH C ,142.2850037,0.7599,435.039,622.148,23.718,0.526,0.4306,0.0837068,0.00570198,-2.08907E-06,0,0,-257.73,,-2.63E+02,9.77E-01,6.87E-05
20278-88-0,344-Mheptane,C10H22       ,PN,(CH3)5 (CH2)3 CH C ,142.2850037,0.7607,434.260,621.039,23.718,0.524,0.4270,0.07877,0.00570298,-2.08982E-06,0,0,-257.11,,-2.63E+02,9.77E-01,6.87E-05
20278-89-1,345-Mheptane,C10H22       ,PN,(CH3)5 (CH2)2 (CH)3 ,142.2850037,0.7591,435.648,619.648,23.373,0.529,0.4337,0.088246,0.00570198,-2.08832E-06,0,0,-254.05,,-2.60E+02,9.71E-01,7.57E-05
20291-60-5,HEXYL METHYL SULFIDE,C7H16S,MISC,,132.263,0.8390,444.160,638.370,28.510,0.482,0.4200,0.122052275,0.004990285,-2.38615E-06,4.28162E-10,0,-143.39,43.47,-1.38E-01,5.73E-01,1.14E-07
20291-61-6,HEPTYL METHYL SULFIDE,C8H18S,MISC,,146.29,0.8400,468.160,660.720,25.790,0.538,0.4650,0.10115524,0.005176157,-2.55479E-06,4.81865E-10,0,-163.97,51.92,-1.58E-01,6.65E-01,1.25E-07
20291-91-2,"3-ETHYL-2,2-DIMETHYLHEXANE",C10H22,MISC,,142.284,0.7450,429.260,611.700,23.100,0.526,0.3690,-0.377133058,0.008251806,-5.6118E-06,1.55042E-09,0,-258.95,35.90,-2.65E-01,9.86E-01,6.88E-08
20291-91-3,22M-3Ehexane,C10H22       ,PN,(CH3)5 (CH2)3 CH C ,142.2850037,0.7518,429.260,611.760,23.096,0.526,0.3696,0.102596,0.005697,-2.0816E-06,0,0,-252.46,,-2.65E+02,9.86E-01,6.88E-05
20291-95-6,225-Mheptane,C10H22       ,PN,(CH3)5 (CH2)3 CH C ,142.2850037,0.7316,423.928,598.039,21.649,0.559,0.4308,0.1693,0.005682,-2.06219E-06,0,0,-272.20,22.20,-2.78E+02,9.86E-01,6.87E-05
20348-51-0,cis-2-Decene,C10H20       ,N,CH=CH (CH3)2 (CH2)6 ,140.2689972,0.8091,447.000,621.000,21.800,0.571,0.4752,-0.25321,0.0073414,-5.1099E-06,1.92716E-09,-3.1411E-13,-131.80,,-1.31E+02,7.93E-01,8.47E-05
2039-93-2,2PHButene1,C10H12       ,OC,CH2=C CH2 CH3 AC (ACH)5 ,132.2050018,0.8954,455.148,666.000,30.100,0.454,0.3532,-0.4274,0.007371,-6.45387E-06,3.0454E-09,-5.9763E-13,92.60,,9.30E+01,4.09E-01,4.68E-05
2040-95-1,n-Bcycpentan,C9H18        ,N,CH3 (CH2)7 CH ,126.2360001,0.7879,429.772,631.481,27.254,0.482,0.3008,-0.0397899,0.0057208,-2.1137E-06,0,0,-168.27,61.38,-1.73E+02,7.65E-01,6.71E-05
2040-96-2,n-Pcycpentan,C8H16        ,N,CH3 (CH2)6 CH ,112.2080002,0.7801,404.109,603.148,29.991,0.425,0.3350,-0.0713098,0.0057158,-2.10698E-06,0,0,-148.19,52.59,-1.53E+02,6.68E-01,6.09E-05
2050-92-2,DiAmylAmine,C10H23N      ,Misc,(CH2)7 (CH3)2 CH2NH ,157.2980042,0.7806,476.148,639.000,21.200,0.629,0.6767,-0.237025,0.00755476,-5.48925E-06,2.2041E-09,-3.90327E-13,-200.00,,-2.00E+02,1.04E+00,9.10E-05
2051-30-1,26-Moctane,C10H22       ,PN,(CH3)4 (CH2)4 (CH)2 ,142.2850037,0.7312,433.561,603.148,21.511,0.576,0.4489,0.1905,0.005682,-2.06183E-06,0,0,-261.37,26.94,-2.67E+02,9.61E-01,7.32E-05
206-44-0,Fluoranthene,C16H10       ,AMR,(ACH)10 (AC)6 ,202.2550049,1.1659,655.950,905.000,26.100,0.655,0.5875,-0.560503,0.00717788,-6.74484E-06,3.19129E-09,-6.0688E-13,288.90,386.20,2.89E+02,3.19E-01,2.79E-05
2079-95-0,1Ttrdecthiol,C14H30S      ,MISC,CH2SH CH3 (CH2)12 ,230.4490051,0.8502,579.400,753.799,16.000,0.873,0.7070,0.0255239,0.00584638,-3.16761E-06,6.77184E-10,3.62225E-21,-293.88,95.06,-2.85E+02,1.22E+00,1.85E-04
208-96-8,Acebaphthlne,C12H8        ,AMR,(AC)4 (ACH)8 ,152.1950073,0.8552,543.150,792.000,32.000,0.544,0.3987,-0.306241,0.00527226,-3.09543E-06,4.55152E-10,1.22532E-13,259.60,,2.60E+02,2.17E-01,3.60E-05
21282-97-3,2AAxC2C1acrl,C10H14O5     ,Misc,COO CH2COO CH2=C ,214.2180023,1.2834,575.000,761.000,22.600,0.621,0.8219,-0.6323,0.008636,-1.09455E-05,7.27E-09,-1.8962E-12,-887.50,,-8.89E+02,7.84E-01,4.41E-05
2131-18-2,n-Pentdec-BZ,C21H36       ,A,(ACH)5 ACCH2 (CH2)13 CH3 ,288.5,0.8594,639.260,800.372,13.444,1.055,0.9720,-0.173666,0.00665446,-3.9852E-06,9.15708E-10,1.97165E-20,-240.24,237.02,-2.50E+02,1.59E+00,1.16E-04
2141-58-4,cDiCyan1C4=,C6H6N2       ,Misc,,106.125,1.0729,501.000,691.000,29.500,0.392,0.6719,0.122705,0.00347428,5.8323E-07,-3.65678E-09,1.82735E-12,271.00,342.00,2.71E+02,2.32E-01,2.25E-05
2141-59-5,tDiCyan1C4=,C6H6N2       ,Misc,,106.125,1.0653,499.000,689.000,29.500,0.392,0.6643,-0.0188621,0.00521466,-4.50258E-06,2.01632E-09,-3.61277E-13,267.00,340.00,2.67E+02,2.38E-01,2.03E-05
2150-02-9,DMrcEtylC2ol,C4H10OS2     ,Misc,CH2 CH2O CH2SH ,138.2550049,1.1705,490.148,720.000,36.900,0.378,0.4193,0.154384,0.00382826,-2.672E-06,1.13108E-09,-2.37564E-13,-173.00,,-1.73E+02,3.68E-01,4.10E-05
2163-42-0,2-M-13C3diol,C4H10O2      ,Misc,CH (CH2)2 CH3 (OH)2 ,90.12220001,1.0174,487.150,697.000,53.500,0.292,0.7144,0.012228,0.0054146,-3.3783E-06,9.1E-10,-4.77695E-14,-434.90,,-4.35E+02,4.73E-01,4.50E-05
2177-47-1,2MIndene,C10H10       ,AUC,(ACH)4 (AC)2 CH CH=CH CH3 ,130.1880035,0.9814,457.000,684.000,34.600,0.429,0.3277,-0.379554,0.0071715,-6.37377E-06,2.96992E-09,-5.6927E-13,115.00,219.00,1.15E+02,3.37E-01,3.02E-05
218-01-9,Chrysene,C18H12       ,AMR,(ACH)12 (AC)6 ,228.2920074,1.2785,714.150,978.999,23.800,0.725,0.6040,-0.200597,0.00499404,-2.63246E-06,1.34564E-10,1.95468E-13,262.80,401.08,2.63E+02,4.49E-01,4.45E-05
2189-60-8,n-Octyl-BZ,C14H22       ,A,(ACH)5 ACCH2 (CH2)6 CH3 ,190.3200073,0.8611,537.538,728.150,20.339,0.725,0.5909,-0.229828,0.00659346,-4.04034E-06,9.50452E-10,2.65405E-20,-95.76,178.20,-1.02E+02,9.14E-01,7.43E-05
2207-01-4,1-ci2-MCC6,C8H16        ,N,(CH3)2 (CH2)4 (CH)2 ,112.2080002,0.7999,402.889,605.927,29.646,0.462,0.2360,-0.453077,0.00671998,-1.36487E-06,-2.14338E-09,1.02533E-12,-172.30,41.21,-1.78E+02,7.18E-01,5.19E-05
2207-03-6,1-tr3-MCC6,C8H16        ,N,(CH3)2 (CH2)4 (CH)2 ,112.2080002,0.7883,397.609,598.150,29.646,0.462,0.1890,-0.490299,0.007533,-4.10301E-06,8.79184E-10,-4.03203E-14,-176.69,36.32,-1.82E+02,7.16E-01,5.24E-05
2207-04-7,1-tr4-MCC6,C8H16        ,N,(CH3)2 (CH2)4 (CH)2 ,112.2080002,0.7661,392.506,589.817,29.646,0.448,0.2340,-0.2703,0.0057996,3.86166E-07,-3.50354E-09,1.38983E-12,-184.69,31.71,-1.91E+02,7.29E-01,5.00E-05
2210-28-8,nPMAcrylate,C7H12O2      ,Misc,(CH3)2 (CH2)2 CH2=C COO ,128.1710052,0.9070,413.997,599.000,29.100,0.428,0.4008,-0.366275,0.0070355,-6.36021E-06,3.14649E-09,-6.5647E-13,-402.00,-239.00,-4.02E+02,5.31E-01,5.04E-05
2213-23-2,24-Mheptane,C9H20        ,PN,(CH3)4 (CH2)3 (CH)2 ,128.2590027,0.7186,406.049,576.848,23.406,0.517,0.3974,0.1805,0.0056726,-2.04911E-06,0,0,-241.00,18.45,-2.46E+02,8.63E-01,6.79E-05
2216-30-0,25-Mheptane,C9H20        ,PN,(CH3)4 (CH2)3 (CH)2 ,128.2590027,0.7204,409.148,581.150,23.506,0.522,0.4031,0.1804,0.005672,-2.051E-06,0,0,-240.71,18.45,-2.46E+02,8.63E-01,6.79E-05
2216-32-2,4-Eheptane,C9H20        ,PN,(CH3)3 (CH2)5 CH ,128.2590027,0.7316,414.346,587.950,23.913,0.505,0.4128,0.1485,0.005682,-2.06219E-06,0,0,-231.75,26.32,-2.35E+02,8.56E-01,6.80E-05
2216-33-3,3-Moctane,C9H20        ,PN,(CH3)3 (CH2)5 CH ,128.2590027,0.7237,417.380,590.150,23.406,0.529,0.4184,0.1854,0.0056766,-2.05436E-06,0,0,-233.72,21.71,-2.38E+02,8.50E-01,6.70E-05
2216-34-4,4-Moctane,C9H20        ,PN,(CH3)3 (CH2)5 CH ,128.2590027,0.7237,415.588,587.650,23.406,0.523,0.4151,0.1815,0.0056766,-2.05436E-06,0,0,-235.22,21.71,-2.38E+02,8.50E-01,6.70E-05
2216-51-5,LMenthol,C10H20O      ,MISC,(CH)4 (CH2)3 (CH3)3 OH ,156.2680054,0.8804,489.549,658.000,27.100,0.572,0.7796,-0.417502,0.0070821,-3.53709E-06,-1.25435E-11,3.84773E-13,-407.50,,-4.09E+02,1.02E+00,7.60E-05
2243-98-3,1-Undecyne,C11H20       ,N,CH-=C (CH2)8 CH3 ,152.279007,0.7767,468.200,650.000,22.100,0.613,0.4700,0.0385145,0.0062191,-3.63363E-06,8.4284E-10,2.76074E-21,20.59,260.62,1.64E+01,7.98E-01,6.37E-05
2274-11-5,EGDiacetate,C8H10O4      ,Misc,(CH2)2 (CH2=CH)2 (COO)2 ,170.1640015,1.0908,503.000,689.000,27.000,0.518,0.6618,-0.575744,0.00932928,-1.31081E-05,9.2622E-09,-2.49139E-12,-602.00,,-6.03E+02,5.37E-01,1.27E-05
2278-87-9,"3,3,4-TRIMETHYLHEPTANE",C10H22,MISC,,142.284,0.7520,435.060,622.100,23.710,0.526,0.3650,-0.377133058,0.008251806,-5.6118E-06,1.55042E-09,0,-256.56,35.56,-2.63E-01,9.77E-01,6.87E-08
2278-88-0,"3,4,4-TRIMETHYLHEPTANE",C10H22,MISC,,142.284,0.7530,434.260,620.900,23.710,0.524,0.3650,-0.377133058,0.008251806,-5.6118E-06,1.55042E-09,0,-256.56,35.56,-2.63E-01,9.77E-01,6.87E-08
2278-89-1,"3,4,5-TRIMETHYLHEPTANE",C10H22,MISC,,142.284,0.7520,435.660,612.800,22.390,0.547,0.4170,-0.396158387,0.008070479,-5.30748E-06,1.41035E-09,0,-252.84,38.24,-2.60E-01,9.71E-01,7.57E-08
2292-79-7,DiaMantane,C14H20       ,ASC,,188.3130035,1.0413,529.000,791.000,22.600,0.663,0.1633,-0.53868,0.007744,-6.1707E-06,2.59684E-09,-4.58235E-13,-145.90,,-1.46E+02,9.88E-01,8.14E-05
2315-68-6,n-C3Benzoate,C10H12O2     ,Misc,(CH2)2 CH3 AC (ACH)5 COO ,164.2039948,1.0273,504.150,710.000,28.500,0.502,0.5209,-0.5126,0.0064504,-5.0199E-06,1.74912E-09,-1.4497E-13,-338.10,,-3.38E+02,5.40E-01,6.33E-05
2367-82-0,1235-F-BZ,C6H2F4       ,Misc,(ACH)2 (ACF)4 ,150.0740051,0.6770,357.600,535.299,37.500,0.313,0.3460,-0.0757348,0.00314512,-1.9991E-06,4.5946E-10,0,-749.49,,-7.49E+02,1.72E-01,2.13E-05
2425-74-3,tBFormamide,C5H11NO      ,Misc,,101.1480026,0.8998,475.148,692.000,35.600,0.383,0.4491,-0.114389,0.00515812,-1.56309E-06,-1.53745E-09,9.3043E-13,-284.00,-114.00,-2.84E+02,5.52E-01,5.43E-05
2432-63-5,DiPMaleate,C10H16O4     ,Misc,(CH2)4 (CH3)2 CH=CH (COO)2 ,200.2350006,1.0293,521.000,691.000,22.000,0.614,0.7815,-0.16544,0.00662272,-6.95469E-06,4.19172E-09,-1.05695E-12,-710.00,,-7.10E+02,8.33E-01,5.39E-05
2432-74-8,Ami-CNitrile,C6H12N2      ,Misc,,112.1750031,0.8930,503.000,697.000,30.500,0.441,0.6532,0.1125,0.0054118,-3.4917E-06,1.13716E-09,-1.52E-13,27.30,,2.75E+01,5.80E-01,4.66E-05
2436-90-0,37-M-16-C8==,C10H18       ,N,(CH3)3 (CH2)2 CH CH2=CH CH=C ,138.253006,0.7612,434.260,640.372,25.434,0.557,0.2596,0.077171,0.00570298,-2.09018E-06,0,0,-22.15,,-2.29E+01,6.99E-01,5.59E-05
2437-56-1,1-Tridecene,C13H26       ,N,CH3 (CH2)10 CH2=CH ,182.3500061,0.7698,505.898,674.000,17.000,0.651,0.6273,0.14262,0.00553218,-1.72908E-06,-2.47325E-10,-1.21711E-22,-186.00,146.27,-1.92E+02,1.11E+00,8.56E-05
2443-04-1,1Mci3i-PCC5,C9H18        ,N,(CH3)3 (CH2)3 (CH)3 ,126.2360001,0.7831,415.371,609.260,26.648,0.474,0.2995,-0.055305,0.0057178,-2.10962E-06,0,0,-133.31,,-1.32E+02,8.29E-01,8.43E-05
2456-27-1,di-nonyl-Eth,C18H38O      ,Misc,(CH3)2 (CH2)15 CH2O ,270.4970093,0.8152,591.000,735.000,13.000,0.102,1.0021,-0.0575769,0.0065421,-3.69816E-06,7.99528E-10,0,-538.98,-6.60,-5.38E+02,1.75E+00,1.46E-04
2469-45-6,DECYL-SULFIDE,C20H42S,MISC,,314.612,0.0000,671.160,832.330,10.270,1.210,0.7950,-0.000467242,0.00603251,-3.2281E-06,6.75276E-10,0,-414.63,150.16,-4.03E-01,1.78E+00,2.50E-07
24768-43-2,HEXYL-PROPYL-SULFIDE,C9H205,MISC,,160.317,0.8400,491.160,681.560,23.450,0.594,0.5080,0.082399246,0.005212111,-2.41727E-06,4.11073E-10,0,-187.15,56.69,-1.80E-01,7.55E-01,1.36E-07
24768-46-5,HEPTYL-PROPYL-SULFIDE,C10H22S,MISC,,174.344,0.8410,513.160,701.030,21.410,0.650,0.5510,0.069368605,0.005344262,-2.54646E-06,4.52829E-10,0,-207.78,65.06,-2.01E-01,8.47E-01,1.46E-07
24800-44-0,TriC3=Glycol,C9H20O4      ,Misc,(CH)3 CH2 (CH3)3 (OH)2 (CH2O)2 ,192.2550049,1.0271,540.350,677.000,25.400,0.596,1.2567,-0.36157,0.0078674,-8.2521E-06,4.9332E-09,-1.24905E-12,-829.70,,-8.30E+02,1.07E+00,7.23E-05
2495-27-4,CetylC1cryla,C20H38O2     ,Misc,(CH2)15 (CH3)2 CH2=C COO ,310.5209961,0.8758,641.000,793.000,12.300,1.260,0.9762,-0.33057,0.008027,-7.2915E-06,3.77836E-09,-8.3425E-13,-665.00,,-6.65E+02,1.77E+00,1.33E-04
24991-55-7,DEPG,DEPG         ,Misc,,280,1.0255,637.174,786.370,31.559,0.521,0.4446,0.001151311,-6.45994E-07,-7.50877E-12,3.62095E-15,0,-32.77,,-3.28E+01,-3.28E+01,-3.28E+01
25103-58-6,tC12Mrcaptan,C12H26S      ,Misc,C (CH2)7 (CH3)3 CH2SH ,202.404007,0.8619,515.650,691.000,18.600,0.771,0.6098,-0.0774773,0.00629272,-3.70509E-06,7.27536E-10,9.5247E-14,-273.40,,-2.74E+02,1.12E+00,9.61E-05
25154-52-3,NonylPhenol,C15H24O      ,Misc,(ACH)4 ACCH2 ACOH (CH2)7 CH3 ,220.3540039,0.9576,581.000,757.000,20.700,0.747,0.8998,-0.236704,0.00686076,-5.15934E-06,2.02867E-09,-3.35132E-13,-291.00,31.70,-2.91E+02,1.05E+00,8.98E-05
25167-94-6,DiPhenylC3,C15H16       ,AD,(ACH)10 (ACCH2)2 CH2 ,196.2910004,1.0079,573.450,798.803,26.325,0.615,0.5425,-0.400206032,0.006475067,-4.35373E-06,1.11212E-09,0,120.13,,1.20E+02,5.84E-01,6.48E-05
25265-71-8,DiC3=Glycol,C6H14O3      ,Misc,(CH3)2 CH2 (CH)2 (OH)2 CH2O ,134.1750031,1.0272,504.950,654.000,35.800,0.415,1.1977,-0.253309,0.00716488,-6.91818E-06,3.79581E-09,-8.96195E-13,-628.00,-406.00,-6.28E+02,7.29E-01,5.37E-05
25276-70-4,1-PENTADECANETHIOL,C15H32S,MISC,,244.478,0.8430,593.860,764.770,14.860,0.930,0.7370,0.018651985,0.005909325,-3.22446E-06,6.954E-10,0,-314.51,103.47,-3.05E-01,1.31E+00,1.96E-07
2532-58-3,1-ci3-MCC5,C7H14        ,N,(CH3)2 (CH2)3 (CH)2 ,98.18900299,0.7487,363.920,550.927,35.439,0.362,0.2842,-0.0477989,0.0056946,-2.07857E-06,0,0,-135.85,39.23,-1.40E+02,5.84E-01,5.24E-05
25498-49-1,TPGMMEther,C10H22O4     ,Misc,(CH2)6 CH3 OH (CH2O)3 ,206.2810059,0.9751,515.549,657.000,21.800,0.652,1.1254,-0.429744,0.00839566,-9.41772E-06,6.16844E-09,-1.71839E-12,-810.40,,-8.11E+02,1.18E+00,7.92E-05
2551-62-4,F6S,F6S          ,MISC,,146.0540009,1.2442,209.600,318.700,37.600,0.199,0.2860,-0.00451818,0.00317622,-3.48429E-06,1.33716E-09,7.0323E-22,-1222.00,,,3.55E-01,-4.06E-06
25714-71-0,4HoxyC4Aldyd,C4H8O2       ,Misc,(CH2)3 OH CHO ,88.10630035,1.0939,432.000,599.000,44.800,0.265,0.8404,0.28414,0.0041538,-2.39064E-06,7.0708E-10,-1.09565E-13,-356.60,,-3.56E+02,3.50E-01,3.50E-05
258-976-0,n-Undecylcyclohexane,,MISC,,238.5,,,,,,,FALSE,FALSE,FALSE,FALSE,FALSE,,,,,
260-94-6,Acridine,C13H9N       ,Misc,,179.2200012,1.0765,619.150,905.000,36.400,0.543,0.4383,-0.32977,0.00547922,-3.79614E-06,1.08916E-09,-6.1392E-14,292.50,,2.93E+02,3.51E-01,4.00E-05
2613-61-8,246-Mheptane,C10H22       ,PN,(CH3)5 (CH2)2 (CH)3 ,142.2850037,0.7263,420.760,590.372,21.511,0.560,0.4248,0.1825,0.0056786,-2.05697E-06,0,0,-269.28,40.46,-2.59E+02,9.80E-01,7.41E-05
2613-65-2,1M-tr3-ECC5,C8H16        ,N,(CH3)2 (CH2)4 (CH)2 ,112.2080002,0.7703,394.260,587.593,28.979,0.421,0.2666,-0.056326,0.005709,-2.0984E-06,0,0,-107.39,,-1.06E+02,7.25E-01,7.52E-05
2613-66-3,1M-ci3-ECC5,C8H16        ,N,(CH3)2 (CH2)4 (CH)2 ,112.2080002,0.7703,394.260,587.039,29.385,0.421,0.2756,-0.056326,0.005709,-2.0984E-06,0,0,-107.39,,-1.06E+02,7.25E-01,7.52E-05
2613-72-1,1ci2ci4-MCC5,C8H16        ,N,(CH3)3 (CH2)2 (CH)3 ,112.2080002,0.7754,389.911,579.817,28.875,0.416,0.2770,-0.0890108,0.0057128,-2.10287E-06,0,0,-112.67,,-1.11E+02,7.33E-01,7.83E-05
26158-99-6,ETHYL PENTYL SULFIDE,C7H16S,MISC,,132.263,0.8390,444.160,638.370,28.510,0.482,0.4200,0.100973061,0.005013042,-2.36052E-06,4.114E-10,0,-145.81,40.38,-1.40E-01,5.71E-01,1.14E-07
26186-01-6,1-Nonadecyn,C19H36       ,MISC,CH-=C (CH2)16 CH3 ,264.4890137,0.8087,600.200,758.900,11.900,1.061,0.7350,-0.0164882,0.0065129,-3.83904E-06,8.99568E-10,1.102E-20,-144.30,327.86,-1.53E+02,1.57E+00,1.12E-04
26186-02-7,1-Tridecyne,C13H24       ,MISC,CH-=C (CH2)10 CH3 ,180.3300018,0.7765,507.200,684.098,18.600,0.725,0.5530,0.0195807,0.00632394,-3.70881E-06,8.65732E-10,1.07354E-20,-20.63,277.44,-2.58E+01,9.92E-01,7.57E-05