CAS Number,Name,Formula,Type,UNIFAC,MW,SG6060,TB,Tc,Pc,Vc,OMEGA,CPA,CPB,CPC,CPD,CPE,HFORM25,GFORM25,GIBBSA,GIBBSB,GIBBSC
933-98-2,3EoXylene,C10H14       ,N,(ACCH3)2 ACCH2 (ACH)3 CH3 ,134.2200012,0.8965,467.109,680.000,28.800,0.507,0.3621,-0.306452,0.00718584,-6.14772E-06,3.12668E-09,-7.50525E-13,-25.65,138.40,-2.50E+01,5.32E-01,5.53E-05
934-74-7,5EmXylene,C10H14       ,A,(ACCH3)2 ACCH2 (ACH)3 CH3 ,134.2200012,0.8692,456.928,655.000,27.500,0.482,0.4169,-0.175507,0.00589516,-3.47889E-06,8.81296E-10,-5.29895E-14,-35.40,127.20,-3.43E+01,5.23E-01,6.44E-05
934-80-5,4EoXylene,C10H14       ,A,(ACCH3)2 ACCH2 (ACH)3 CH3 ,134.2200012,0.8787,462.928,667.000,28.800,0.490,0.4114,-0.248484,0.00654784,-4.71003E-06,1.78435E-09,-2.88613E-13,-32.09,127.40,-3.13E+01,5.14E-01,5.98E-05
93-54-9,1Ph1Propanol,C9H12O       ,A,CH2 CH3 (ACH)5 ACCH OH ,136.1940002,1.0008,492.150,677.000,34.900,0.440,0.7464,-0.34637,0.0065396,-5.0706E-06,1.99472E-09,-3.03395E-13,-159.40,,-1.59E+02,4.79E-01,5.20E-05
93-58-3,M-BZoate,C8H8O2       ,Misc,CH3 (ACH)5 AC COO ,136.151001,1.0870,472.200,692.000,36.200,0.396,0.4300,-0.15587,0.00404298,-1.3221E-06,3.25212E-10,0,-253.00,-181.00,-2.54E+02,2.35E-01,3.21E-05
93-89-0,E-BZoate,C9H10O2      ,Misc,CH3 CH2 (ACH)5 AC COO ,150.177002,1.0519,485.898,668.700,23.200,0.431,0.5510,0.13772,0.0045889,-2.40405E-06,3.37287E-10,0,-283.99,-148.00,-2.85E+02,3.70E-01,1.86E-05
939-27-5,2ENaphthalen,C12H12       ,Misc,(AC)2 (ACH)7 ACCH2 CH3 ,156.2290039,0.9962,531.050,771.000,31.700,0.520,0.4213,-0.359105,0.0064149,-4.58625E-06,1.30076E-09,2.63398E-21,125.12,224.43,9.31E+01,4.28E-01,3.96E-05
93-99-2,PhenylBZoate,C14H12O2     ,AMR,(ACH)10 (AC)2 COO ,198.2310028,1.0059,523.000,722.000,26.000,0.561,0.5800,-0.0975188,0.0048705,-2.58818E-06,4.06188E-10,0,-191.00,,-1.91E+02,5.34E-01,5.10E-05
94-02-0,BENZYL ACETATE,C9H1002,Misc,,150.177,1.0450,486.650,699.000,31.800,0.449,0.4700,-0.414817182,0.006508653,-5.36853E-06,1.81339E-09,-7.08031E-15,-309.16,-174.82,-3.12E-01,4.49E-01,3.44E-08
94023-15-1,C3=G2tC4Ethr,C7H16O2      ,MISC,C CH (CH3)4 OH CH3O ,132.2030029,0.8761,425.150,578.000,29.900,0.439,0.7746,-0.34622,0.0080552,-0.000007872,4.4676E-09,-1.0991E-12,-515.90,,-5.16E+02,7.91E-01,5.96E-05
94-36-0,BzylPeroxyde,C14H10O4     ,Misc,,242.2310028,1.1462,669.000,884.000,25.700,0.701,0.9136,-0.479268,0.0049009,-3.08421E-06,6.55208E-10,3.61592E-14,-272.00,,-2.71E+02,5.18E-01,8.21E-05
94-60-0,DiCCC6DiCate,C10H16O4     ,Misc,(COO)2 (CH3)2 (CH2)4 (CH)2 ,200.2350006,1.1161,539.150,736.000,24.900,0.569,0.6412,-0.77397,0.008209,-7.9428E-06,4.0436E-09,-8.321E-13,-820.20,,-8.22E+02,9.39E-01,6.24E-05
95-13-6,Indene,C9H8         ,MISC,(ACH)4 (AC)2 CH=CH CH2 ,116.163002,1.0036,455.769,687.000,38.200,0.368,0.3352,-0.28648,0.00548592,-3.24012E-06,6.69072E-10,2.18986E-14,163.27,233.97,1.64E+02,2.24E-01,3.73E-05
95-15-8,ThioNaphtene,C8H6S        ,AUC,(AC)4 C4H2S ,134.201004,1.2196,493.049,754.000,41.400,0.349,0.2955,-0.357648,0.0060741,-6.0363E-06,3.09491E-09,-6.3823E-13,137.00,243.00,1.37E+02,2.54E-01,1.83E-05
95-47-6,o-Xylene,C8H10        ,MISC,(ACH)4 (ACCH3)2 ,106.1660004,0.8840,417.575,630.372,37.328,0.369,0.3023,-0.062588,0.0050378,-1.96988E-06,-4.4938E-10,3.74768E-13,19.00,122.05,1.70E+01,3.39E-01,3.94E-05
95-48-7,o-Cresol,C7H8O        ,A,(ACH)4 ACCH3 ACOH ,108.1380005,1.0370,464.200,697.598,50.100,0.282,0.4330,-0.29869,0.006482,-5.48175E-06,1.96527E-09,0,-128.69,-34.27,-1.30E+02,3.05E-01,2.58E-05
95-49-8,oClToluene,C7H7Cl       ,Misc,ACCH3 ACCL (ACH)4 ,126.5830002,1.0872,432.299,656.000,39.100,0.354,0.3044,-0.0813541,0.0037247,-8.90979E-08,-3.10397E-09,1.72275E-12,18.20,95.90,1.90E+01,2.46E-01,4.02E-05
95-50-1,12-Cl-BZ,C6H4Cl2      ,Misc,(ACH)4 (ACCL)2 ,147.003006,1.4514,451.997,729.000,41.000,0.360,0.1023,-0.0973389,0.00374794,-0.000003072,9.72712E-10,0,30.00,82.68,2.88E+01,1.77E-01,1.05E-05
95-51-2,oClAniline,C6H6ClN      ,Misc,(ACH)4 ACNH2 ACCL ,127.5690002,1.2144,481.989,722.000,45.900,0.364,0.4213,-0.204894,0.00525576,-4.98981E-06,2.41842E-09,-4.72844E-13,57.30,140.00,5.77E+01,2.67E-01,3.05E-05
95-53-4,o-Toluidine,C7H9N        ,Misc,ACCH3 (ACH)4 ACNH2 ,107.1520004,1.0029,473.500,694.000,37.500,0.350,0.4380,-0.108968,0.00554584,-3.41103E-06,8.01152E-10,0,71.04,170.00,7.11E+01,3.46E-01,3.39E-05
95-54-5,oPhnylDimine,C6H8N2       ,Misc,(ACH)4 (ACNH2)2 ,108.1389999,1.0817,525.000,781.000,51.800,0.315,0.4935,-0.353654,0.00710108,-6.85026E-06,3.41028E-09,-6.91545E-13,91.20,207.00,9.07E+01,3.82E-01,2.52E-05
95-57-8,oClPhenol,C6H5ClO      ,Misc,ACCL ACOH (ACH)4 ,128.5570068,1.2660,447.528,675.000,50.000,0.325,0.4372,-0.254564,0.0052999,-5.35725E-06,2.75479E-09,-5.68275E-13,-123.00,-56.30,-1.23E+02,2.14E-01,2.72E-05
95-63-6,124-MBenzene,C9H12        ,Misc,(ACH)3 (ACCH3)3 ,120.1940002,0.8805,442.500,649.098,32.323,0.430,0.3760,0.330199,0.002781,2.64758E-06,-4.2266E-09,1.46393E-12,-13.94,117.50,-1.64E+01,4.31E-01,4.86E-05
95-65-8,34-Xylenol,C8H10O       ,A,(ACH)3 (ACCH3)2 ACOH ,122.1660004,1.0128,500.100,720.000,50.000,0.350,0.5730,0.0290434,0.00535844,-3.38046E-06,8.14952E-10,0,-156.49,-34.13,-1.57E+02,3.98E-01,2.94E-05
95-73-8,24DiClToluen,C7H6Cl2      ,Misc,(ACH)3 ACCH3 (ACCL)2 ,161.0299988,1.2579,474.250,705.000,35.900,0.404,0.3590,0.17662,0.00170208,3.7821E-06,-7.454E-09,3.55735E-12,-13.60,68.66,-1.24E+01,2.59E-01,4.23E-05
95-76-1,34ClAniline,C6H5Cl2N     ,Misc,(ACH)3 ACNH2 (ACCL)2 ,162.0180054,1.3431,545.000,800.000,41.100,0.409,0.4678,-0.098295,0.00439756,-4.59225E-06,2.44266E-09,-5.20665E-13,32.60,123.00,3.36E+01,2.90E-01,3.44E-05
95-80-7,ToluenDiamin,C7H10N2      ,Misc,(ACH)3 ACCH3 (ACNH2)2 ,122.1660004,1.0495,557.150,803.999,43.800,0.376,0.5794,-0.362671,0.00731534,-7.00173E-06,3.47923E-09,-6.712E-13,58.37,203.54,5.79E+01,4.79E-01,3.22E-05
95-87-4,25-Xylenol,C8H10O       ,Misc,(ACH)3 (ACCH3)2 ACOH ,122.1660004,0.9755,484.299,706.900,48.600,0.470,0.5633,-0.00032299,0.005261,-3.17631E-06,7.2666E-10,0,-161.49,-39.52,-1.61E+02,4.13E-01,3.31E-05
95-92-1,Di-E-Oxalate,C6H10O4      ,Misc,(CH3)2 (CH2COO)2 ,146.1430054,1.0848,458.850,645.000,30.800,0.416,0.5682,-0.0530674,0.00502224,-3.59931E-06,1.01893E-09,0,-739.78,-570.00,-7.40E+02,3.88E-01,3.87E-05
959-26-2,Bs2HyETereph,C12H14O6     ,Misc,(CH2)4 (AC)2 (ACH)4 (OH)2 (COO)2 ,254.2400055,1.3366,683.000,846.000,24.700,0.656,1.6035,-0.20511,0.00434792,-1.62857E-06,-1.21406E-09,8.56405E-13,-1030.00,,,8.46E-01,8.13E-05
95-93-2,1245-M-BZ,C10H14       ,Misc,(ACH)2 (ACCH3)4 ,134.2220001,0.8907,469.989,675.372,29.646,0.480,0.4250,-0.351999,0.0057786,-2.19101E-06,0,0,-45.30,120.50,-4.78E+01,5.44E-01,5.17E-05
96-05-9,AllyMAcrylat,C7H10O2      ,A,CH3 CH2 CH2=CH CH2=C COO ,126.1520004,0.9295,412.648,600.000,30.200,0.415,0.3881,-0.031968,0.00535566,-5.76828E-06,3.68574E-09,-9.89E-13,-184.00,,-1.81E+02,4.32E-01,6.65E-05
96-14-0,3-Mpentane,C6H14        ,Misc,(CH3)3 (CH2)2 CH ,86.17790222,0.6683,336.420,504.449,31.238,0.366,0.2750,-0.1695,0.007356,-4.6737E-06,1.41518E-09,-8.8588E-14,-171.69,-3.20,-1.75E+02,5.63E-01,5.04E-05
96-18-4,123-ClC3,C3H5Cl3      ,PN,(CH2Cl)2 CHCl ,147.4320068,1.5170,426.998,650.000,39.500,0.348,0.3100,0.182438,0.00245832,-1.89158E-06,5.96452E-10,0,-185.89,-97.78,-1.87E+02,2.95E-01,1.38E-05
96-22-0,diE-Ketone,C5H10O       ,Misc,(CH3)2 CH2 CH2CO ,86.13400269,0.8194,375.100,561.000,37.200,0.336,0.3440,0.34864,0.00457618,-2.21539E-06,3.94763E-10,0,-258.79,-134.30,-2.58E+02,3.92E-01,4.06E-05
96-33-3,M-Acrylate,C4H6O2       ,KET,CH3 CH2=CH COO ,86.0904007,0.9617,353.350,536.000,42.500,0.270,0.3476,0.053478,0.00447376,-2.77106E-06,6.28488E-10,0,-332.99,-257.32,-3.33E+02,3.04E-01,2.62E-05
96-34-4,MClC2oate,C3H5ClO2     ,ES,CH3COO CH2Cl ,108.5240021,1.2428,402.970,600.000,45.000,0.270,0.4340,-0.156644,0.00497576,-5.64054E-06,3.36804E-09,-7.7707E-13,-449.00,-363.00,-4.48E+02,2.76E-01,3.28E-05
96-37-7,Mcyclopentan,C6H12        ,Misc,CH3 (CH2)4 CH ,84.16190338,0.7528,344.959,532.700,37.896,0.319,0.2389,-0.6841,0.008011,-5.0445E-06,1.4313E-09,-1.31338E-13,-106.79,36.51,-1.10E+02,4.74E-01,4.91E-05
96-41-3,cycPentanol,C5H10O       ,N,(CH2)4 CH OH ,86.12960052,0.9536,413.950,577.580,43.858,0.310,0.7738,-0.45123,0.008416,-8.0874E-06,3.19038E-09,0,-192.42,,-1.92E+02,5.00E-01,0.00E+00
96-47-9,2-M-4HyFuran,C5H10O       ,Misc,CH3 (CH2)2 CH CH2O ,86.13400269,0.8558,351.000,537.000,37.600,0.267,0.2640,-0.542599,0.00671706,-3.81183E-06,1.2915E-09,0,-172.41,,-1.73E+02,5.30E-01,4.30E-05
96-48-0,gamaBLactone,C4H6O2       ,Misc,(CH2)3 COO ,86.0904007,1.1340,477.148,739.000,59.200,0.265,0.3690,0.0890196,0.00357172,-1.14035E-06,-3.94613E-11,0,-378.99,-285.29,-3.79E+02,5.14E-01,3.12E-05
96-49-1,ETHYLENE CARBONATE ,C3H403,ES,,88.063,0.0000,511.150,790.000,67.700,0.193,0.4160,0,0,0,0,0,-506.90,-,,,
96-54-8,N-M-Pyrrole,C5H7N        ,MISC,,81.11730194,0.9154,385.890,610.000,47.700,0.283,0.2128,-0.30542,0.0059024,-3.8631E-06,1.14596E-09,-1.06665E-13,103.10,184.80,1.03E+02,2.63E-01,3.36E-05
97-00-7,24Nitro1ClBZ,C6H3ClN2O4   ,Misc,(ACH)3 ACCL (ACNO2)2 ,202.5540009,1.5550,587.000,813.770,34.700,0.478,0.7319,0.0789913,0.00287044,-1.86083E-06,4.1716E-10,2.96736E-20,35.10,186.00,3.50E+01,4.99E-01,2.52E-05
97-62-1,E-i-C4oate,C6H12O2      ,Misc,(CH3)3 CH2 CH COO ,116.1600037,0.8698,383.200,555.000,29.600,0.421,0.4310,-0.237499,0.00678396,-5.46516E-06,1.83028E-09,0,-499.60,-324.00,-4.99E+02,6.11E-01,4.77E-05
97-63-2,EMethaAcryla,C6H10O2      ,ACID,CH3COO CH2=C CH2 CH3 ,114.1380005,0.9184,390.148,577.000,32.500,0.375,0.3437,-0.14532,0.0055249,-3.54105E-06,8.58628E-10,0,-380.99,-247.00,-3.81E+02,4.88E-01,4.33E-05
97-64-3,EthylLactate,C5H10O3      ,Misc,(CH3)2 CH2 CH OH COO ,118.1330032,1.0454,427.648,588.000,38.600,0.354,0.7926,-0.306599,0.00706076,-7.46346E-06,4.3148E-09,-1.00749E-12,-635.00,-476.00,-6.35E+02,5.22E-01,3.91E-05
97-65-4,ItaconicAcid,C5H6O4       ,Misc,CH2 CH2=C (COOH)2 ,130.1000061,1.4426,601.000,821.000,42.400,0.340,0.9247,-0.23809,0.0064644,-7.8423E-06,5.082E-09,-1.3283E-12,-729.00,-612.00,-7.30E+02,3.92E-01,1.24E-05
97-85-8,i-B-i-C4oate,C8H16O2      ,Misc,(CH3)4 CH2 (CH)2 COO ,144.2140045,0.8607,421.799,601.900,24.600,0.524,0.3949,-0.24565,0.00646944,-4.24071E-06,1.08837E-09,0,-546.98,-313.00,-5.47E+02,8.13E-01,6.57E-05
97-86-9,iC4C1crylate,C8H14O2      ,Misc,CH CH2 (CH3)3 CH2=C COO ,142.197998,0.8902,428.150,612.000,26.700,0.493,0.4205,-0.58322,0.0091232,-1.04943E-05,6.5456E-09,-1.63045E-12,-418.30,,-4.19E+02,6.43E-01,4.57E-05
97-88-1,nBMAcrylate,C8H14O2      ,Misc,(CH3)2 (CH2)3 CH2=C COO ,142.1970062,0.9000,432.000,616.000,26.300,0.481,0.4655,-0.312715,0.00685618,-5.77827E-06,2.61886E-09,-4.98866E-13,-422.00,-231.00,-4.22E+02,6.23E-01,5.76E-05
97-93-8,TriEAluminum,C6H15Al      ,Misc,,114.1660004,0.8399,467.148,678.150,89.300,0.230,0.8418,-0.156137,0.00625418,-3.77217E-06,1.04708E-09,-9.9327E-14,-163.60,0.00,-3.28E+01,-3.28E+01,-3.28E+01
97-95-0,2-E-1-C4ol,C6H14O       ,Misc,(CH3)2 (CH2)3 CH OH ,102.177002,0.8374,419.648,570.000,32.000,0.380,0.7136,-0.0753205,0.00639832,-3.84606E-06,9.29712E-10,0,-326.10,-140.11,-3.26E+02,6.06E-01,5.92E-05
97-99-4,THyFurfurol,C5H10O2      ,OL,CH2O (CH2)3 OH CH ,102.1330032,1.0565,451.148,637.000,46.600,0.290,0.7025,-0.254008,0.00671218,-5.89398E-06,2.84823E-09,-5.8321E-13,-324.64,-216.00,-3.25E+02,5.79E-01,4.05E-05
98-00-0,Furfurol,C5H6O2       ,ACID,,98.09980011,1.1359,443.100,632.000,53.500,0.263,0.7354,-0.0680357,0.0056079,-4.99254E-06,2.31033E-09,-4.43788E-13,-32.77,-154.00,-3.28E+01,-3.28E+01,-3.28E+01
98-01-1,Furfural,C5H4O2       ,Misc,FURFURAL ,96.08580017,1.1550,434.850,657.000,55.121,0.252,0.4442,0.172739,0.00288256,6.04296E-07,-2.4925E-09,9.90185E-13,-151.02,-102.87,-1.51E+02,1.59E-01,1.22E-05
98-06-6,tert-Bbenzen,C10H14       ,Misc,(CH3)3 C (ACH)5 AC ,134.2220001,0.8707,442.299,659.815,29.646,0.461,0.2776,-0.338199,0.005766,-2.17679E-06,0,0,-22.69,149.90,-2.29E+01,5.57E-01,6.17E-05
98-07-7,BenzoTriCl,C7H5Cl3      ,A,CCl3 AC (ACH)5 ,195.4750061,1.3800,486.648,737.000,33.400,0.447,0.2599,-0.110043,0.0039251,-4.2159E-06,2.57208E-09,-6.92115E-13,-12.30,76.98,-1.04E+01,2.78E-01,5.09E-05
98-08-8,AAAF-Toluene,C7H5F3       ,Misc,CF3 AC (ACH)5 ,146.1100006,1.4236,375.200,562.598,35.600,0.363,0.3270,-0.276585,0.00500586,-4.00899E-06,1.2398E-09,1.01737E-21,-600.06,-511.28,-6.02E+02,3.00E-01,1.50E-05
98-13-5,Ph3ClSilane,C6H5Cl3Si    ,Misc,,211.548996,1.3269,474.950,688.000,29.600,0.499,0.3956,-0.052851,0.0035258,-3.5214E-06,1.778E-09,-3.58435E-13,-430.50,,-4.30E+02,2.93E-01,0.00E+00
98-29-3,ptC4Catechol,C10H14O2     ,Misc,C (CH3)3 AC (ACH)3 (ACOH)2 ,166.2200012,1.0850,558.000,776.000,37.700,0.511,0.7344,-0.40336,0.007519,-7.1094E-06,3.47484E-09,-6.911E-13,-374.70,-168.00,-3.75E+02,7.03E-01,4.23E-05
98-46-4,3NitroTriFBZ,C7H4F3NO2    ,Misc,(ACH)4 AC ACNO2 CF3 ,191.1100006,1.4398,475.928,667.000,28.000,0.460,0.5364,0.545588,0.000854996,2.62208E-06,-3.42806E-09,1.14489E-12,-602.00,-461.00,-6.03E+02,4.72E-01,8.89E-06
98-49-7,pDiiC3BZHyPr,C12H18O2     ,Misc,,194.2740021,0.9975,616.000,810.000,24.900,0.669,0.9279,-0.22565,0.0065016,-5.1834E-06,2.18476E-09,-3.95385E-13,-185.90,,-1.86E+02,8.69E-01,6.68E-05
98-54-4,ptrbtylphenl,C10H14O      ,Misc,(ACH)4 ACOH AC C (CH3)3 ,150.2200012,0.9827,512.880,734.000,33.200,0.493,0.5099,-0.490682,0.00780824,-7.05555E-06,3.3392E-09,-6.52365E-13,-200.00,-13.10,-2.00E+02,6.14E-01,4.84E-05
98-56-6,p-ClBenzTriF,C7H4ClF3     ,Misc,(ACH)4 AC ACCL CF3 ,180.5570068,1.3489,411.850,601.000,30.100,0.399,0.3715,-0.1838,0.0045158,-4.5057E-06,2.25432E-09,-4.46035E-13,-620.00,-526.08,-6.20E+02,3.09E-01,2.17E-05
98-82-8,Cumene,C9H12        ,Misc,(CH3)2 (ACH)5 ACCH ,120.1940002,0.8656,425.561,631.150,32.088,0.428,0.3377,-0.3548,0.0066958,-4.5285E-06,1.36722E-09,-1.11968E-13,3.94,139.05,9.83E-01,4.42E-01,4.34E-05
98-83-9,AMS,C9H10        ,A,(ACH)5 AC CH2=C CH3 ,118.1780014,0.9008,438.648,654.000,33.600,0.423,0.3273,-0.298285,0.00612058,-0.000003843,8.80408E-10,1.67659E-14,118.30,208.53,1.11E+02,3.15E-01,3.71E-05
98-85-1,aC1BZAlcohol,C8H10O       ,AU,CH3 ACCH (ACH)5 OH ,122.1669998,1.0191,477.150,668.000,39.900,0.387,0.7060,-0.36624,0.006445,-5.0793E-06,2.02796E-09,-3.1284E-13,-138.70,,-1.38E+02,3.84E-01,4.47E-05
98-86-2,M-PH-Ketone,C8H8O        ,Misc,(ACH)5 AC CH3CO ,120.151001,1.0330,474.898,714.000,40.600,0.376,0.3606,-0.246349,0.0053385,-3.39039E-06,8.0966E-10,0,-86.92,-1.27,-8.64E+01,2.74E-01,3.81E-05
98-87-3,BZylDiCl,C7H6Cl2      ,Misc,CHCl2 AC (ACH)5 ,161.029007,1.2578,487.000,731.000,36.500,0.404,0.3264,-0.153704,0.0041227,-3.51258E-06,1.544E-09,-2.80553E-13,13.00,93.20,1.46E+01,2.49E-01,4.96E-05
98-88-4,BenzoylCl,C7H5ClO      ,Misc,,140.5690002,1.2182,470.148,697.000,40.600,0.367,0.4159,-0.0603947,0.00385686,-2.84699E-06,9.9886E-10,-1.31814E-13,-103.20,-41.97,-1.02E+02,1.94E-01,3.64E-05
98-95-3,NitroBZ,C6H5NO2      ,Misc,(ACH)5 ACNO2 ,123.1093979,1.2077,481.450,712.000,35.000,0.381,0.4018,0.056503,0.00312404,-1.72356E-07,-8.17056E-10,3.10032E-23,67.60,158.00,6.66E+01,2.67E-01,1.66E-05
99-08-1,mNitroToluen,C7H7NO2      ,MISC,ACNO2 ACCH3 (ACH)4 ,137.1380005,1.1623,505.000,734.000,38.000,0.441,0.4903,-0.128265154,0.004592315,-2.91357E-06,6.74504E-10,0,20.80,143.00,2.08E+01,4.00E-01,3.23E-05
99-09-2,m-NitAniline,C6H6N2O2     ,Misc,(ACH)4 ACNH2 ACNO2 ,138.1260071,1.0991,579.000,815.000,44.200,0.406,0.7297,59.986,3.638E-12,-5.5881E-09,-2.3842E-06,-0.0006714,58.50,190.00,,,
992-94-9,MethylSilane,CH6Si        ,Misc,CH3 SIH3 ,46.14410019,0.5054,216.250,352.500,47.000,0.205,0.1314,0.24556,0.0047774,-2.81214E-06,7.7632E-10,-7.873E-14,-29.10,18.53,-2.91E+01,1.60E-01,0.00E+00
993-00-0,MethClSilane,CH5ClSi      ,Misc,,80.58889771,0.9006,281.850,442.000,41.700,0.246,0.2252,0.28368,0.0028174,-1.9926E-06,7.3236E-10,-1.1105E-13,-215.00,-166.10,-2.15E+02,1.64E-01,0.00E+00
993-07-7,TriC1_Silane,C3H10Si      ,Misc,(CH3)3 SIH ,74.19789886,0.6268,279.850,432.000,31.900,0.311,0.1751,0.25553,0.0056564,-4.2525E-06,1.87708E-09,-3.76235E-13,-163.40,-49.91,-1.63E+02,3.58E-01,0.00E+00
99-35-4,135-NitroBZ,C6H3N3O6     ,Misc,(ACNO2)3 (ACH)3 ,213.1060028,1.6839,747.000,1004.960,33.700,0.520,0.8082,0.0403554,0.00316264,-2.04085E-06,4.4718E-10,4.79849E-21,-37.20,0.00,-3.73E+01,7.94E-01,0.00E+00
994-05-8,MTPentE,C6H14O       ,MISC,CH3O (CH3)3 C CH2 ,102.177002,0.7757,359.450,534.000,30.400,0.382,0.3011,-0.0754011,0.0067711,-4.80522E-06,1.90525E-09,-3.41447E-13,-312.00,-120.00,-3.12E+02,6.27E-01,5.50E-05
99-54-7,12Cl4NitroBZ,C6H3Cl2NO2   ,Misc,(ACH)3 (ACCL)2 ACNO2 ,192.0010071,1.4932,529.000,758.000,36.000,0.436,0.5385,-0.111428,0.00442418,-4.39062E-06,2.15358E-09,-4.17502E-13,14.60,119.00,1.28E+01,3.57E-01,-1.50E-06
99-62-7,13-iP-BZ,C12H18       ,Misc,(ACH)4 (ACCH)2 (CH3)4 ,162.2740021,0.8629,476.329,684.000,24.500,0.600,0.3587,-0.447537,0.00764996,-6.21963E-06,2.71716E-09,-5.0063E-13,-77.60,144.53,-7.76E+01,7.45E-01,-3.51E-08
99-63-8,IsoPhtaylCl,C8H4Cl2O2    ,A,,203.0240021,1.3928,549.000,768.000,33.300,0.471,0.6455,0.157891,0.00259348,-1.70135E-06,4.90776E-10,-6.0042E-14,-302.00,-221.00,-3.00E+02,2.53E-01,4.19E-05
99-65-0,13-NitroBZ,C6H4N2O4     ,Misc,(ACNO2)2 (ACH)4 ,168.1080017,1.4236,572.000,805.000,38.500,0.434,0.6817,-0.0665641,0.00377208,-2.51955E-06,5.9722E-10,1.47319E-20,-27.60,0.00,-2.75E+01,6.74E-01,0.00E+00
99-75-2,M-p-Toluate,C9H10O2      ,MISC,(ACH)4 AC CH3COO ACCH3 ,150.1790009,1.0646,496.148,710.898,32.246,0.458,0.4877,0.00339599,0.00443234,-2.23309E-06,2.62356E-10,1.27503E-21,-321.30,,-3.21E+02,4.65E-01,0.00E+00
99-82-1,1M-4i-PCC6,C10H20       ,Misc,(CH3)3 (CH2)4 (CH)3 ,140.2680054,0.8022,443.868,654.260,25.586,0.525,0.2637,-0.0640779,0.0057298,-2.12564E-06,0,0,-153.95,,-1.53E+02,9.22E-01,9.46E-05
99-83-2,aPhellandren,C10H16       ,N,(CH)2 CH2 (CH3)3 CH=C CH=CH ,136.2350006,0.8513,448.148,649.000,28.200,0.500,0.3805,-0.78043,0.00955658,-9.12321E-06,4.739E-09,-1.02094E-12,-9.30,191.00,-9.81E+00,6.56E-01,5.76E-05
99-85-4,gTerpinene,C10H16       ,OC,CH (CH2)2 (CH3)3 (CH=C)2 ,136.2350006,0.8531,456.148,661.000,28.000,0.505,0.3750,-0.585511,0.00939472,-9.46083E-06,5.1924E-09,-1.16944E-12,-11.70,181.00,-1.21E+01,6.33E-01,4.96E-05
99-86-5,aTerpinene,C10H16       ,OC,CH (CH2)2 (CH3)3 (CH=C)2 ,136.2350006,0.8383,450.350,652.000,28.000,0.506,0.3755,-0.412371,0.00856864,-8.09649E-06,4.22624E-09,-9.19885E-13,-20.60,178.00,-2.08E+01,6.52E-01,5.00E-05
99-87-6,p-Cymene,C10H14       ,OC,(CH3)2 (ACH)4 ACCH3 ACCH ,134.2220001,0.8608,450.277,650.000,27.300,0.478,0.3730,-0.2828,0.005763,-2.17046E-06,0,0,-29.95,136.70,-3.06E+01,5.34E-01,5.51E-05
99-88-7,Cumidine,C9H13N       ,A,(ACH)4 ACCH (CH3)2 ACNH2 ,135.2100067,1.0184,498.148,717.000,33.500,0.431,0.4741,-0.148585,0.00582314,-3.52461E-06,7.91356E-10,2.80002E-20,24.48,,2.46E+01,5.61E-01,0.00E+00
999-21-3,DiAlyMaleate,C10H12O4     ,Misc,(CH2)2 CH=CH (CH2=CH)2 (COO)2 ,196.2030029,1.0824,520.000,693.000,23.300,0.606,0.7886,-0.31795,0.00750834,-8.83527E-06,5.41416E-09,-1.30047E-12,-517.00,-335.00,-5.18E+02,6.09E-01,1.94E-05
99-93-4,4HxAcPhenone,C8H8O2       ,Misc,AC (ACH)4 ACOH CH3CO ,136.1499939,1.1807,601.650,860.000,44.500,0.394,0.6409,-0.12547,0.0054494,-4.2252E-06,1.4118E-09,-1.0359E-13,-268.95,,-2.69E+02,3.63E-01,2.48E-05
99-94-5,pToluicAcid,C8H8O2       ,Misc,(ACH)4 ACCH3 AC COOH ,136.1490021,1.2075,548.150,772.000,38.600,0.397,0.6610,0.033213,0.00244214,3.45834E-06,-6.34296E-09,2.70569E-12,-322.80,-213.35,-3.22E+02,3.50E-01,4.91E-05
99945-14-9,1-CYCLOPENTYLHEXANE,C11H22,Misc,,154.295,0.7930,476.260,667.670,22.810,0.593,0.4420,-0.442412262,0.007693056,-4.91144E-06,1.30905E-09,0,-209.49,78.20,-2.16E-01,9.60E-01,7.88E-08
99-99-0,pNitroToluen,C7H7NO2      ,MISC,ACNO2 ACCH3 (ACH)4 ,137.1380005,1.1261,511.648,736.000,38.000,0.441,0.5407,0,0,0,0,0,31.00,155.00,3.10E+01,4.06E-01,3.23E-05
999-97-3,HexMDiSilazn,C6H19NSi2    ,0.00,,161.3950043,0.7728,399.148,544.000,19.200,0.613,0.5101,0,0,0,0,0,-476.60,0.00,-3.28E+01,-3.28E+01,-3.28E+01