CAS Number,Name,Formula,Type,UNIFAC,MW,SG6060,TB,Tc,Pc,Vc,OMEGA,CPA,CPB,CPC,CPD,CPE,HFORM25,GFORM25,GIBBSA,GIBBSB,GIBBSC
2628-17-3,4-HoxyStyren,C8H8O        ,Misc,CH2=CH AC (ACH)4 ACOH ,120.151001,0.9835,502.000,736.000,45.200,0.374,0.5090,-0.34795,0.0068274,-0.000006633,3.439E-09,-7.433E-13,-28.77,,-2.87E+01,2.86E-01,2.74E-05
26438-26-6,1nC9Naphthal,C19H26       ,AMR,(CH2)7 CH3 (AC)2 (ACH)7 ACCH2 ,254.4140015,0.9408,639.000,849.000,16.800,1.000,0.6168,-0.308248,0.00686686,-5.08848E-06,1.9479E-09,-3.08571E-13,-47.50,,-4.68E+01,1.08E+00,1.01E-04
26438-27-7,1C10Naphthal,C20H28       ,AMR,(CH2)8 CH3 (AC)2 (ACH)7 ACCH2 ,268.4410095,0.9353,652.000,859.000,15.800,1.070,0.6415,-0.316819,0.00698772,-5.27025E-06,2.0777E-09,-3.41309E-13,-68.20,291.00,-6.75E+01,1.17E+00,1.09E-04
26471-62-5,TOLUENE DIISOCYANATE,C9H6N202,MISC,,174.159,1.2200,523.150,737.000,30.400,0.525,0.5530,-0.029157264,0.003306289,1.68823E-06,-5.20691E-09,2.47217E-12,-226.15,-95.58,-2.31E-01,4.52E-01,-1.08E-09
26519-91-5,MCC5==,C6H8         ,MISC,,80.12950134,0.8148,345.928,541.000,44.300,0.279,0.2376,-0.783831,0.00917962,-8.93646E-06,4.55436E-09,-9.4491E-13,100.00,171.00,9.99E+01,2.30E-01,3.00E-05
26761-40-0,Di-iC10Phate,C28H46O4     ,Misc,(CH)2 (CH2)14 (CH3)4 (AC)2 (ACH)4 (COO)2 ,446.67099,0.9729,740.000,908.000,10.000,1.730,1.1400,-0.30766,0.0066626,-5.1294E-06,2.32304E-09,-5.47E-13,-1060.00,-358.81,-1.07E+00,2.29E+00,1.97E-04
26762-93-6,DHP,C12H18O2     ,Misc,,194.2740021,0.9565,620.000,811.999,24.600,0.688,0.9626,-0.180307,0.0061033,-4.07841E-06,1.28702E-09,-1.51097E-13,-200.00,,-2.01E+02,7.35E-01,6.05E-05
27154-33-2,111ClFC2,C2H2Cl3F     ,Misc,CCl3 CH2 F ,151.3930054,1.5938,366.000,565.000,39.900,0.294,0.2501,0.128668,0.00258892,-3.11289E-06,1.88909E-09,-4.56057E-13,-302.00,-234.00,-3.00E+02,2.12E-01,3.64E-05
275-51-4,AZULENE,C10H8,MISC,,128.173,1.0530,515.160,773.480,38.970,0.410,0.3550,-0.567147527,0.006589219,-4.86975E-06,1.40139E-09,0,279.91,351.87,2.78E-01,2.38E-01,3.18E-08
27554-26-3,DiiC8Phthala,C24H38O4     ,Misc,(COO)2 (CH2)14 (CH3)2 (ACH)4 (AC)2 ,390.5620117,0.9903,694.000,851.000,11.800,1.420,1.0880,-0.190002,0.00564186,-2.97518E-06,2.69534E-10,1.52064E-13,-967.00,-371.00,-9.66E+02,1.95E+00,1.68E-04
2765-18-6,1PNaphthalen,C13H14       ,AMR,(AC)2 (ACH)7 ACCH2 CH2 CH3 ,170.25,0.7735,547.650,704.619,13.864,0.970,0.7680,0.0744748,0.00596774,-2.09227E-06,0,0,74.67,232.63,7.12E+01,5.27E-01,4.39E-05
280-57-9,TriE=DiAmine,C6H12N2      ,Misc,(CH2)4 (CH2N)2 ,112.1750031,0.8812,447.150,655.000,39.100,0.382,0.4602,-1.1834,0.0095734,-7.9488E-06,3.29548E-09,-5.4315E-13,88.00,247.00,8.63E+01,6.01E-01,5.15E-05
2807-30-9,EGMonoPEther,C5H12O2      ,Misc,CH3 (CH2)2 C2H5O2 ,104.1490021,0.9162,424.500,582.000,36.700,0.347,0.7830,-0.197135,0.00686814,-6.34485E-06,3.71291E-09,-1.01224E-12,-421.00,-248.00,-4.21E+02,5.64E-01,5.21E-05
281-23-2,Adamantane,C10H16       ,OC,(CH)4 (CH2)6 ,136.2369995,0.9538,461.000,703.000,29.200,0.485,0.1853,-0.43546,0.0051948,9.915E-07,-4.0936E-09,1.65915E-12,-128.24,,-1.28E+02,7.38E-01,8.26E-05
2837-89-0,2Cl1112FC2,C2HClF4      ,Misc,CF3 HCClF ,136.4750061,1.3870,261.049,395.648,35.400,0.246,0.2735,0.153696,0.00253104,-2.28736E-06,8.9038E-10,-1.10515E-13,-924.70,-851.80,-9.25E+02,2.41E-01,1.15E-05
286012-97-3,OCTYL ALCOHOL,C8H180,MISC,,130.23,0.8230,468.350,652.500,28.600,0.490,0.5940,0.101328419,0.005566536,-2.12109E-06,-4.48284E-10,3.46917E-13,-357.06,-117.36,-3.61E-01,7.98E-01,6.32E-08
2870-04-04,2-ETHYL-m-XYLENE,C10H14,MISC,,134.221,0.8860,463.190,671.000,30.200,0.482,0.4070,-0.244238979,0.006744772,-5.06009E-06,2.00684E-09,-3.40416E-13,-26.23,137.90,-2.93E-02,5.45E-01,4.72E-08
2870-04-4,2EmXylene,C10H14       ,A,(ACCH3)2 ACCH2 (ACH)3 CH3 ,134.2200012,0.8948,463.190,671.000,30.200,0.482,0.4066,-0.262112,0.0068611,-5.31711E-06,2.23833E-09,-4.13105E-13,-26.23,,-2.56E+01,5.32E-01,5.53E-05
287-23-0,Cyclobutane,C4H8         ,N,(CH2)4 ,56.10770035,0.6990,285.661,459.927,49.849,0.210,0.1810,-0.895568,0.0089542,-6.34131E-06,1.86604E-09,-2.09569E-22,26.67,112.20,2.42E+01,2.77E-01,3.36E-05
287-27-4,TriC1=Sulfid,C3H6S        ,Misc,CH2S (CH2)2 ,74.14659882,1.0261,368.120,602.000,58.600,0.218,0.1731,-0.26167,0.0046798,-2.42094E-06,1.97316E-10,1.66755E-13,60.60,107.49,6.06E+01,1.46E-01,3.27E-05
2876-53-1,1nHxNaphthal,C16H20       ,AMR,(CH2)4 CH3 (AC)2 (ACH)7 ACCH2 ,212.3350067,0.9544,595.150,813.000,22.500,0.741,0.5874,-0.39461,0.00719714,-5.82069E-06,2.4668E-09,-4.28774E-13,14.40,258.60,1.47E+01,7.96E-01,7.45E-05
287-92-3,Cyclopentane,C5H10        ,N,(CH2)5 ,70.13500214,0.7496,322.398,511.600,45.090,0.260,0.1920,-0.764518,0.0077365,-4.32165E-06,9.24628E-10,-4.1305E-22,-77.29,38.92,-8.05E+01,3.85E-01,4.52E-05
288-13-1,Pyrazole,C3H4N2       ,Misc,,68.07820129,1.0736,460.150,734.000,66.000,0.235,0.2868,-0.021898,0.004978,-4.1256E-06,1.82396E-09,-3.3627E-13,181.17,,-3.28E+01,-3.28E+01,-3.28E+01
288-14-2,"1,2-oxazole (isoxazole)",C3H3NO,MISC,,55.058,,590.000,61.000,190.940,0.000,0.0000,0.59057819,-0.001465498,1.56743E-05,-2.03433E-08,8.09233E-12,82.02,37.17,,,
28823-41-8,2M-24-C6==,C7H12        ,OD,(CH3)3 CH=CH CH=C ,96.17250061,0.7483,384.648,582.039,34.143,0.390,0.2669,0.0101538,0.005694,-2.07824E-06,0,0,36.84,,3.63E+01,4.03E-01,3.85E-05
2882-98-6,n-Nonylcyclopentane,C14H28,MISC,,196.375,0.8040,535.260,716.950,17.620,0.761,0.5660,-0.36629408,0.007520306,-4.73187E-06,1.23234E-09,0,-271.33,103.43,-2.79E-01,1.25E+00,9.70E-08
2883-02-05,1-CYCLOHEXYLNONANE,C15H30,MISC,,210.402,0.8130,554.660,737.790,16.620,0.809,0.5770,1.920133839,0.007394416,-4.24221E-06,8.97853E-10,0,-316.23,98.49,-3.26E-01,1.39E+00,9.22E-08
2883-02-5,n-Nonylcyclohexane,,MISC,,210.4,,,,,,,FALSE,FALSE,FALSE,FALSE,FALSE,,,,,
288-42-6,Oxazole,C3H3NO       ,MISC,,69.06300354,0.7255,342.648,552.000,63.200,0.237,0.2331,0.17662,0.00219484,1.76783E-06,-3.19553E-09,1.1311E-12,-15.50,26.40,-3.28E+01,-3.28E+01,-3.28E+01
288-47-1,Thiazole,C3H3NS       ,MISC,,85.12960052,1.2009,389.950,632.500,66.520,0.213,0.2465,0.224481,0.00203418,8.94165E-07,-1.1136E-09,-6.07745E-22,100.89,,9.96E+01,1.39E-01,5.47E-06
2885-00-9,1OctadcThiol,C18H38S      ,MISC,CH2SH CH3 (CH2)16 ,286.5580139,0.8508,633.200,795.400,11.000,1.097,0.7980,0.00304997,0.00605248,-3.34881E-06,7.32748E-10,3.16302E-21,-376.30,128.74,-3.66E+02,1.59E+00,2.27E-04
289-80-5,PyridAzine,C4H4N2       ,Misc,,80.08920288,1.1082,481.150,774.000,54.900,0.274,0.2035,-0.66565,0.0076724,-8.1192E-06,4.3272E-09,-9.1165E-13,278.40,,-3.28E+01,-3.28E+01,-3.28E+01
289-95-2,Pyrimidine,C4H4N2       ,Misc,,80.08920288,1.0700,396.900,638.000,54.900,0.274,0.2105,-1.3952,0.010057,-1.04019E-05,5.1452E-09,-9.911E-13,195.70,,1.94E+02,1.97E-01,1.18E-05
2902-96-7,ISOPROPYL NITRATE,C3H7N03,MISC,,105.093,0.0000,373.660,0.000,0.000,0.000,0.0000,-0.018888033,0.004851132,-3.43677E-06,9.63908E-10,0,-191.00,-40.67,-1.94E-01,5.08E-01,1.88E-08
290-37-9,Pyrazine,C4H4N2       ,Misc,,80.08920288,1.0804,389.150,626.000,54.900,0.274,0.2030,-0.15245,0.0053866,-4.8417E-06,2.29208E-09,-4.43985E-13,196.10,,1.96E+02,2.66E-02,1.50E-05
291-64-5,Cycloheptane,C7H14        ,N,(CH2)7 ,98.18900299,0.8147,391.950,604.200,38.100,0.353,0.2370,-0.77595,0.00801206,-4.28151E-06,7.70028E-10,-5.00265E-22,-119.39,47.31,-1.25E+02,6.12E-01,5.33E-05
2917-26-2,1-HEXADECANETHIOL,C16H34S,MISC,,258.505,0.8430,607.160,774.680,13.820,0.986,0.7630,0.012467844,0.005964295,-3.27398E-06,7.11127E-10,0,-335.10,111.88,-3.26E-01,1.40E+00,2.06E-07
29256-79-9,12Br1ClF3C2,C2Br2ClF3    ,Misc,CCl (Br)2 CF3 ,276.2770081,2.0704,366.000,560.700,36.100,0.368,0.2480,0.018794,0.001630086,-1.46478E-06,4.2896E-10,0,-653.52,,-6.54E+02,1.94E-01,3.94E-06
292-64-8,Cyclooctane,C8H16        ,N,(CH2)8 ,112.2080002,0.8393,424.311,647.200,35.600,0.410,0.2360,-0.2621,0.005751,-2.15477E-06,0,0,-125.77,91.38,-1.32E+02,7.22E-01,6.22E-05
293-55-0,Cyclononane,C9H18        ,N,(CH2)9 ,126.2360001,0.8535,451.539,644.260,31.716,0.512,0.5015,-0.2509,0.005759,-2.16524E-06,0,0,-117.47,,-1.15E+02,7.90E-01,1.06E-04
293-96-9,Cyclodecane,C10H20       ,N,(CH2)10 ,140.2680054,0.8608,475.371,667.039,29.646,0.569,0.5583,-0.223399,0.005763,-2.17046E-06,0,0,-138.11,,-1.36E+02,8.84E-01,1.14E-04
295-48-7,1-CYCLOPENTYLDECANE,C15H30,MISC,,210.402,0.8070,552.540,730.640,16.290,0.817,0.6040,-0.347007158,0.007472838,-4.67652E-06,1.20593E-09,0,-291.96,111.84,-3.00E-01,1.35E+00,1.03E-07
302-01-2,Hydrazine,N2H4         ,MISC,,32.04470062,1.0131,386.700,652.000,145.000,0.101,0.3160,0.3048,0.0059136,-5.17089E-06,1.88017E-09,3.99144E-22,95.35,159.38,8.92E+01,2.30E-01,0.00E+00
3036-66-6,C4==Ether,C5H8O        ,Misc,(CH2=CH)2 CH2O ,84.12000275,0.8111,338.148,513.840,37.591,0.296,0.2943,0.21233,0.00446514,-2.17552E-06,3.36432E-10,-3.30755E-21,-27.88,,-2.78E+01,3.01E-01,0.00E+00
3048-64-4,V-Norbornene,C9H12        ,A,,120.1940002,0.8954,413.650,626.000,32.100,0.427,0.2487,-0.81398,0.0084146,-6.6294E-06,2.6496E-09,-4.2946E-13,158.80,,1.58E+02,4.49E-01,4.68E-05
3068-00-6,124-C4triol,C4H10O3      ,MISC,(CH2)3 CH (OH)3 ,106.1200027,1.0224,567.020,725.275,57.566,0.310,1.6936,0.126675,0.00463338,-2.71575E-06,6.1532E-10,4.42002E-20,-587.86,,-5.88E+02,5.29E-01,0.00E+00
306-83-2,11Cl222FC2,C2HCl2F3     ,Misc,CHCl2 CF3 ,152.9100037,1.4884,300.760,458.148,37.851,0.289,0.2931,0.12012,0.0024491,-2.28891E-06,7.74292E-10,1.8873E-23,-718.45,-668.90,-7.18E+02,2.48E-01,2.22E-05
3071-32-7,E-BzHyPeroxi,C8H10O2      ,Misc,,138.1660004,1.0801,536.000,737.000,37.900,0.416,0.8130,-0.24511,0.0060448,-5.0598E-06,2.23496E-09,-4.1917E-13,-67.09,,-6.70E+01,4.55E-01,3.96E-05
307-34-6,octadecaﬂuorooctane,C8F18,MISC,,438.059,,502.200,16.600,534.400,0.000,0.0000,0.063618207,0.003675868,-4.65521E-06,2.94006E-09,-7.51955E-13,-3798.24,-3463.70,,,
3073-66-3,113-MCC6,C9H18        ,N,(CH3)3 (CH2)4 CH C ,126.2360001,0.7822,409.789,612.039,26.951,0.469,0.2318,-0.065736,0.005717,-2.10884E-06,0,0,-131.50,,-1.30E+02,8.48E-01,8.55E-05
307-45-9,docosaﬂuorodecane,C10F22,MISC,,538.075,,542.300,14.500,624.200,0.000,0.0000,0.062454468,0.003718482,-4.77262E-06,3.07591E-09,-8.06407E-13,-4622.48,-4205.05,,,
3074-64-4,23M2-heptene,C9H18        ,N,(CH3)4 (CH2)3 C=C ,126.2360001,0.7381,418.260,600.927,24.924,0.521,0.3638,0.13,0.005687,-2.06852E-06,0,0,-131.45,,-1.31E+02,7.17E-01,6.39E-05
3074-71-3,23-Mheptane,C9H20        ,PN,(CH3)4 (CH2)3 (CH)2 ,128.2590027,0.7293,413.648,589.650,24.014,0.515,0.3852,0.15589,0.0056808,-2.05994E-06,0,0,-246.10,23.30,-2.41E+02,8.63E-01,6.72E-05
3074-75-7,2M-4Ehexane,C9H20        ,PN,(CH3)4 (CH2)3 (CH)2 ,128.2590027,0.7271,406.950,580.148,24.014,0.504,0.3991,0.1495,0.005679,-2.05772E-06,0,0,-238.74,23.05,-2.43E+02,8.70E-01,6.87E-05
3074-76-8,3M-3Ehexane,C9H20        ,PN,(CH3)4 (CH2)4 C ,128.2590027,0.7447,413.747,597.549,25.534,0.487,0.3509,0.0958428,0.0056918,-2.07488E-06,0,0,-236.23,24.56,-2.42E+02,8.72E-01,6.33E-05
3074-77-9,3M-4Ehexane,C9H20        ,PN,(CH3)4 (CH2)3 (CH)2 ,128.2590027,0.7431,413.549,593.848,25.129,0.490,0.3703,0.101498,0.0056908,-2.07338E-06,0,0,-231.67,29.08,-2.30E+02,8.14E-01,8.85E-05
31032-94-7,2-ETHYL-3-METHYLNAPHTHALENE,C13H14,MISC,,170.254,0.0000,550.160,776.440,27.130,0.578,0.4880,-0.203965839,0.005873577,-2.67306E-07,9.54398E-10,0,65.77,224.01,6.28E-02,5.25E-01,4.70E-08
3129-90-6,ISOTHIOCYANIC ACID,CHNS,MISC,,59.065,0.0000,0.000,0.000,0.000,0.000,0.0000,0.250063489,0.002452214,-2.47405E-06,9.47228E-10,0,127.61,112.88,1.30E-01,-8.65E-02,3.12E-08
313-72-4,perF-NP,C10F8        ,Misc,(AC)2 (ACF)8 ,272.0920105,1.5832,482.000,673.098,20.500,0.549,0.4170,-0.0365815,0.00275742,-1.77527E-06,4.04948E-10,0,-1482.77,,,3.29E-01,1.86E-05
3173-53-3,CC6IsoCyanat,C7H11NO      ,Misc,,125.1660004,1.0966,442.148,633.000,34.700,0.372,0.5216,-0.0540927,0.00338782,2.08827E-06,-3.89969E-09,1.32728E-12,-140.00,32.80,-1.40E+02,5.64E-01,5.50E-05
3173-72-6,15-Nap_DiiCy,C12H6N2O2    ,Misc,,210.1920013,1.1114,603.000,818.000,27.200,0.635,0.7301,-0.14399,0.0043736,-3.1638E-06,1.02972E-09,-1.14335E-13,37.66,,3.76E+01,2.04E-01,2.72E-05
3178-22-1,tert-BCC6,C10H20       ,N,(CH3)3 (CH2)5 CH C ,140.2680054,0.8161,444.717,659.260,26.696,0.526,0.2520,-0.117696,0.005736,-2.13686E-06,0,0,-152.14,,-1.50E+02,9.39E-01,1.01E-04
3178-29-8,4n-Pheptane,C10H22       ,PN,(CH3)3 (CH2)6 CH ,142.2850037,0.7393,430.648,601.148,21.786,0.545,0.4434,0.1543,0.005688,-2.06966E-06,0,0,-252.76,37.53,-2.57E+02,9.62E-01,7.35E-05
319-88-0,135-Cl-F3-BZ,C6Cl3F3      ,Misc,(ACCL)3 (ACF)3 ,235.4190063,1.6490,471.500,684.900,32.700,0.448,0.4260,0.0921721,0.00197633,-1.26545E-06,2.96642E-10,0,-623.54,,-6.22E+02,2.09E-01,3.81E-05
320-60-5,24-ClBnzTriF,C7H3Cl2F3    ,Misc,(ACH)3 AC (ACCL)2 CF3 ,215.0010071,1.5077,450.650,646.000,28.100,0.443,0.4344,-0.077013,0.0038746,-4.0722E-06,2.14104E-09,-4.5661E-13,-651.45,-555.01,-6.51E+02,3.15E-01,2.41E-05
3221-61-2,2-Moctane,C9H20        ,PN,(CH3)3 (CH2)5 CH ,128.2590027,0.7168,416.428,586.750,22.899,0.541,0.4167,0.209498,0.00567098,-2.04725E-06,0,0,-229.19,20.30,-2.41E+02,8.55E-01,6.63E-05
327-54-8,1245-F-BZ,C6H2F4       ,Misc,(ACH)2 (ACF)4 ,150.0740051,1.3914,363.398,543.400,37.000,0.313,0.3550,-0.0757348,0.00314512,-1.9991E-06,4.5946E-10,0,-749.49,,-7.49E+02,1.72E-01,2.13E-05
334-48-5,nC10oicAcid,C10H20O2     ,Misc,CH3 (CH2)8 COOH ,172.2680054,0.8877,543.150,726.000,21.000,0.600,0.7272,0.0709509,0.00560074,-3.29715E-06,9.68716E-10,-1.78006E-13,-594.30,-305.00,-5.94E+02,9.46E-01,7.63E-05
335-57-9,perF-C7,C7F16        ,Misc,(CF3)2 (CF2)5 ,388.0490112,1.7346,355.600,474.799,16.100,0.664,0.5560,-0.192079,0.00395984,-3.36105E-06,9.47988E-10,0,-3386.90,-3093.02,,1.03E+00,-3.88E-05
3404-61-3,3M1C6=,C7H14        ,N,CH2=CH CH (CH3)2 (CH2)2 ,98.1882019,0.6958,357.049,528.000,29.500,0.398,0.3057,0.0876619,0.00541572,-1.15778E-06,-1.37195E-09,6.0939E-13,-66.69,92.33,-6.61E+01,5.14E-01,5.79E-05
3404-71-5,2-Eth-1-C5=,C7H14        ,N,(CH3)2 (CH2)3 CH2=C ,98.1882019,0.7139,367.150,543.000,29.500,0.398,0.3073,-0.23407,0.0075566,-5.6979E-06,2.4054E-09,-4.4207E-13,-74.64,84.62,-7.41E+01,5.15E-01,5.70E-05
344-04-7,Br-F5-BZ,C6BrF5       ,Misc,AC Br (ACF)5 ,246.9600067,1.9218,409.997,601.000,30.300,0.400,0.3550,0.0275014,0.001914792,-1.25436E-06,2.91651E-10,0,-942.21,,-9.42E+02,1.52E-01,1.29E-05
344-07-0,Cl-F5-BZ,C6ClF5       ,Misc,ACCL (ACF)5 ,202.5090027,1.9994,391.100,570.799,32.200,0.376,0.4000,0.039854,0.00228114,-1.46202E-06,3.32028E-10,0,-984.28,0.00,-9.83E+02,1.98E-01,2.59E-05
3452-07-01,1-EICOSENE,C20H40,MISC,,280.538,0.0000,615.540,771.000,12.200,1.160,0.8770,0.445953846,0.004007657,9.21479E-07,-2.60311E-09,8.82376E-13,-330.24,205.14,-3.40E-01,1.79E+00,1.35E-07
3452-07-1,1-Eicosene,C20H40       ,N,CH3 (CH2)17 CH2=CH ,280.5190125,0.7995,615.500,767.739,10.432,1.137,0.8806,0.070038,0.00596678,-2.48146E-06,1.36174E-10,-3.42279E-22,-330.24,,-3.40E+02,1.79E+00,1.28E-04
3452-09-03,1-NONYNE,C9H16,MISC,,124.225,0.7520,423.960,610.810,26.740,0.502,0.3820,0.06226605,0.006097565,-3.59243E-06,8.53451E-10,0,61.80,243.76,5.86E-02,6.04E-01,5.16E-08
3452-09-3,1-Nonyne,C9H16        ,OD,CH-=C (CH2)6 CH3 ,124.2300034,0.7610,423.000,610.799,26.600,0.502,0.3820,0.0622635,0.0060973,-3.59226E-06,8.53404E-10,4.84777E-21,61.70,,5.86E+01,6.04E-01,5.16E-05
34590-94-8,DiC3=GC1Ethr,C7H16O3      ,Misc,(CH)2 CH2 (CH3)2 OH CH2O CH3O ,148.2019958,0.9597,461.450,612.000,29.000,0.466,0.8803,-0.28144,0.0074528,-7.4424E-06,4.3712E-09,-1.11785E-12,-607.20,,-6.07E+02,8.25E-01,6.06E-05
3522-94-9,225-Mhexane,C9H20        ,PN,(CH3)5 (CH2)2 CH C ,128.2590027,0.7175,397.243,568.049,23.304,0.519,0.3560,0.1653,0.0056718,-2.04797E-06,0,0,-254.19,14.00,-2.60E+02,8.95E-01,6.22E-05
352-32-9,p-F-Toluene,C7H7F        ,Misc,ACF ACCH3 (ACH)4 ,110.1259995,1.0024,389.799,590.598,38.200,0.338,0.3110,-0.305157,0.00565656,-4.01568E-06,1.1272E-09,2.84738E-21,-148.02,-70.88,-1.50E+02,2.57E-01,2.56E-05
352-93-2,diE-Sulphide,C4H10S       ,MISC,CH2S CH2 (CH3)2 ,90.18370056,0.8378,365.299,557.000,39.600,0.318,0.2920,0.15079,0.00439274,-1.97498E-06,2.93912E-10,0,-83.53,18.24,-7.89E+01,2.99E-01,8.36E-05
353-36-6,F-C2,C2H5F        ,HAL,CH3 CH2 F ,48.06000137,0.7307,235.500,375.299,50.200,0.164,0.2150,0.0904851,0.00453894,-2.42766E-06,5.01764E-10,0,-261.69,-212.40,-2.63E+02,1.71E-01,2.21E-05
353-50-4,CarbnylFlrde,CF2O         ,Misc,,66.00720215,0.6984,188.580,297.000,57.600,0.141,0.2829,0.363219,0.001258686,4.18473E-09,-8.84436E-10,3.88259E-13,-638.90,-623.36,-6.39E+02,5.11E-02,3.54E-06
353-59-3,Br-Cl-F2-C1,CBrClF2      ,Misc,I CClF2 ,165.3630066,1.8455,268.000,426.898,42.500,0.245,0.1840,0.15167,0.001305022,-1.22705E-06,3.88801E-10,0,-431.30,-411.80,-4.32E+02,1.67E-01,-6.06E-06
353-85-5,F3AcetoNitri,C2F3N        ,Misc,,95.02300262,0.8464,205.500,311.100,36.200,0.202,0.2670,0.23304,0.00265264,-2.48619E-06,8.64232E-10,0,-495.68,,-3.28E+01,-3.28E+01,-3.28E+01
354-23-4,12Cl112FC2,C2HCl2F3     ,Misc,HCClF CClF2 ,152.9290009,1.4902,301.148,461.600,36.100,0.278,0.2410,0.129195,0.00254582,-2.67797E-06,1.3145E-09,-2.45388E-13,-710.00,295.00,-7.09E+02,2.28E-01,2.05E-05
354-25-6,"1-chloro-1,1,2,2-tetraﬂuoroethane",C2HClF4,MISC,,136.476,,261.380,400.000,37.600,0.244,0.2600,0.175934465,0.002336858,-1.50348E-06,-2.41849E-10,4.12423E-13,-903.30,-830.90,,,
354-33-6,C5-F-Ethane,C2HF5        ,Misc,CF3 CH (F)2 ,120.0214005,1.5162,225.040,339.165,36.199,0.211,0.3053,0.164393,0.00266466,-0.000002046,5.44E-10,0,-1100.40,-1030.00,-1.11E+00,2.53E-01,1.24E-06
354-96-1,perF-23-MC4,C6F14        ,Misc,(CF3)4 (CF)2 ,338.0440063,1.7933,332.898,462.000,18.600,0.525,0.3940,-0.183909,0.00390844,-3.31071E-06,9.32652E-10,0,-2965.21,,,8.82E-01,-3.21E-05
355-02-2,perF-MCC6,C7F14        ,Misc,CF3 (CF2)5 CF ,350.053009,1.7907,349.500,486.799,23.300,0.570,0.4910,-0.407498,0.0045629,-3.7515E-06,1.02939E-09,0,-2897.90,,,1.05E+00,-3.53E-05
355-04-4,perF-2-MC5,C6F14        ,Misc,(CF3)3 (CF2)2 CF ,338.0440063,1.7346,330.799,451.997,18.100,0.550,0.4640,-0.183909,0.00390844,-3.31071E-06,9.32652E-10,0,-2965.21,,,8.82E-01,-3.21E-05
355-25-9,perF-C4,C4F10        ,Misc,(CF3)2 (CF2)2 ,238.0240021,1.5164,271.200,386.398,23.200,0.378,0.3740,0.0912931,0.00308914,-2.77119E-06,8.79428E-10,0,-2130.00,293.15,-2.14E+00,6.05E-01,-2.02E-05
355-42-0,perF-C6,C6F14        ,Misc,(CF3)2 (CF2)4 ,338.0440063,1.6304,329.799,448.799,16.600,0.606,0.5140,-0.183909,0.00390844,-3.31071E-06,9.32652E-10,0,-2965.21,-2722.34,,8.82E-01,-3.21E-05
355-68-0,perF-CC6,C6F12        ,Misc,(CF2)6 ,300.0450134,1.6487,326.000,457.200,24.300,0.459,0.4320,-0.434169,0.00460552,-3.76032E-06,1.02567E-09,0,-2461.37,,,8.52E-01,-2.86E-05
356-18-3,12-ClC6FCC4,C4Cl2F6      ,Misc,,232.9400024,1.7552,332.150,497.000,27.300,0.386,0.2330,-0.1464,0.0037758,-4.4514E-06,2.4324E-09,-5.0745E-13,-1254.20,,,4.38E-01,1.25E-05
359-10-4,1-Cl-22-FC2=,C2HClF2      ,Misc,CH=C Cl (F)2 ,98.47850037,1.2488,254.600,400.600,44.600,0.197,0.2200,0.29789,0.001903652,-1.41705E-06,3.85418E-10,0,-385.14,-303.00,-3.84E+02,6.45E-02,1.46E-05
359-11-5,TRIFLUOROETHENE,C2HF3,MISC,,82.05,0.9190,221.010,347.220,45.160,0.183,0.2380,0.198634979,0.002816453,-2.41621E-06,7.91115E-10,0,-490.78,-464.47,-4.91E-01,8.79E-02,3.62E-09
359-35-3,1122FC2,C2H2F4       ,Misc,(CH)2 (F)4 ,102.0270004,1.3247,250.149,391.000,37.700,0.191,0.1850,0.257572,0.00271782,-2.32021E-06,1.00603E-09,-1.79291E-13,-892.40,-824.60,-8.93E+02,2.26E-01,6.95E-06
360-89-4,8F-2-Butene,C4F8         ,Misc,,200.0310059,1.4997,270.358,392.000,23.300,0.347,0.2922,-0.06378,0.0026526,-3.2685E-06,1.97396E-09,-4.72405E-13,-1648.00,-1530.00,-1.65E+00,3.68E-01,5.70E-05
363-72-4,F5-BZ,C6HF5        ,Misc,ACH (ACF)5 ,168.0630035,1.5093,358.898,531.000,35.200,0.324,0.3730,-0.0300859,0.0027951,-1.77062E-06,4.01312E-10,0,-957.07,10.85,-9.57E+02,1.83E-01,1.87E-05
3648-21-3,DinC7Phthate,C22H34O4     ,Misc,(COO)2 (ACH)4 (AC)2 (CH3)2 (CH2)12 ,362.5100098,0.9935,663.000,815.000,12.700,1.160,1.1046,-0.38836,0.006736,-5.1636E-06,1.85456E-09,-1.89295E-13,-923.80,,-9.23E+02,1.68E+00,1.49E-04
365-71-4,perF-3-MC5,C6F14        ,Misc,(CF3)3 (CF2)2 CF ,338.0440063,1.7106,331.500,450.000,16.800,0.550,0.4760,-0.183909,0.00390844,-3.31071E-06,9.32652E-10,0,-2965.21,,,8.82E-01,-3.21E-05