CAS Number,Name,Formula,Type,UNIFAC,MW,SG6060,TB,Tc,Pc,Vc,OMEGA,CPA,CPB,CPC,CPD,CPE,HFORM25,GFORM25,GIBBSA,GIBBSB,GIBBSC
108-45-2,mPhynDiamine,C6H8N2       ,Misc,(ACH)4 (ACNH2)2 ,108.1389999,1.1076,560.000,824.000,51.800,0.377,0.5432,-0.353654,0.00710108,-6.85026E-06,3.41028E-09,-6.91545E-13,91.20,207.00,9.07E+01,3.82E-01,2.52E-05
108-46-3,13BZdiol,C6H6O2       ,Misc,(AC)2 (ACH)4 (OH)2 ,110.1110001,1.1778,549.650,810.000,74.900,0.300,0.6767,-0.280264,0.0063819,-6.3903E-06,3.29907E-09,-6.8801E-13,-274.70,-181.30,-2.75E+02,3.09E-01,1.67E-05
108-47-4,"2,3-dimethylpyridine (2,3 lutidine)",C7H9N,MISC,,107.155,,434.300,655.400,40.900,0.367,0.3450,0.327811581,0.001039143,8.81716E-06,-1.25453E-08,5.10921E-12,68.28,177.59,,,
108-48-5,26MPyridine,C7H9N        ,Misc,(CH3)2 C5H3N ,107.1520004,0.9256,417.200,623.750,37.800,0.316,0.3502,-0.111768,0.00486026,-1.9706E-06,-3.09896E-10,2.97667E-13,58.70,168.40,5.92E+01,3.54E-01,4.32E-05
108-55-4,GltrcAnhydrd,C5H6O3       ,Misc,CH2 CH2CO CH2COO ,114.0970001,1.2447,562.690,838.000,58.000,0.275,0.5372,-0.347293,0.0054756,-3.47382E-06,1.07756E-09,-1.43343E-13,-349.00,-237.00,-3.51E+02,3.81E-01,9.72E-06
108-57-6,mDiVinylBZ,C10H10       ,AUC,(CH2=CH)2 (AC)2 (ACH)4 ,130.1880035,0.9339,472.648,692.000,31.200,0.440,0.3734,-0.291941,0.00668296,-5.84484E-06,2.73073E-09,-5.32005E-13,212.00,300.92,2.13E+02,2.86E-01,3.65E-05
108-60-1,DiClIPEther,C6H12Cl2O    ,Misc,CH-O CH (CH3)2 (CH2Cl)2 ,171.0700073,1.1095,455.846,613.150,28.472,0.480,0.4540,0.2651,0.00313352,-1.39594E-06,1.30942E-10,4.20683E-20,-341.43,,-3.41E+02,6.95E-01,0.00E+00
108-64-5,E-i-C5-oate,C7H14O2      ,ES,(CH3)3 CH2 CH CH2COO ,130.1860046,0.8744,407.450,587.950,28.300,0.442,0.4074,-0.171389,0.00644424,-4.60086E-06,1.32122E-09,0,-526.98,-324.00,-5.27E+02,7.29E-01,5.45E-05
108-65-6,PGMMEther,C6H12O3      ,Misc,(CH2)3 CH3COO CH3O ,132.1580048,0.9751,418.648,597.900,30.090,0.421,0.4762,-0.414252,0.00773272,-8.36682E-06,4.97504E-09,-1.20259E-12,-614.80,,-6.15E+02,6.25E-01,4.56E-05
108-67-8,135-MBenzene,C9H12        ,A,(ACH)3 (ACCH3)3 ,120.1940002,0.8688,437.894,637.361,31.268,0.433,0.3990,-0.16297,0.00559428,-3.0711E-06,6.40612E-10,2.09835E-22,-16.08,118.26,-1.86E+01,4.42E-01,4.97E-05
108-68-9,35-Xylenol,C8H10O       ,Misc,(ACH)3 (ACCH3)2 ACOH ,122.1660004,0.9851,494.898,715.598,33.500,0.610,0.4911,-0.0923441,0.00549634,-3.39495E-06,7.95408E-10,0,-161.49,-39.26,-1.62E+02,4.13E-01,3.51E-05
108-70-3,135ClBZ,C6H3Cl3      ,Misc,(ACCL)3 (ACH)3 ,181.4470062,1.3873,481.549,718.000,37.200,0.425,0.3596,0.00487732,0.00319282,-3.16497E-06,1.59146E-09,-3.22646E-13,-6.90,,-4.93E+00,1.83E-01,4.12E-05
108-75-8,246MPyridine,C8H11N       ,Misc,(CH3)3 C5H3N ,121.1800003,0.9214,444.000,653.000,33.300,0.417,0.3759,-0.345667,0.00606016,-3.5082E-06,6.0318E-10,8.0834E-14,23.50,138.00,2.36E+01,3.69E-01,4.96E-05
108-78-1,Melamine,C3H6N6       ,Misc,,126.1210022,0.8287,704.000,1017.000,58.600,0.445,0.6946,0.071061,0.0041854,-2.98335E-06,9.8084E-10,-1.14485E-13,51.80,,-3.28E+01,-3.28E+01,-3.28E+01
108-82-7,26-M-4-C7ol,C9H20O       ,Misc,(CH)3 (CH2)2 (CH3)4 OH ,144.2570038,0.8160,451.000,603.000,25.500,0.538,0.8022,-0.22657,0.0073848,-0.000005412,2.11056E-09,-3.4881E-13,-410.00,-130.00,-4.10E+02,9.15E-01,7.81E-05
108-83-8,DiisoBKetone,C9H18O       ,Misc,CH2CO (CH3)4 CH2 (CH)2 ,142.2400055,0.8097,441.410,615.000,24.800,0.522,0.5116,-0.0240004,0.00630296,-4.22913E-06,1.53426E-09,-2.52251E-13,-357.60,-113.00,-3.57E+02,7.97E-01,7.13E-05
108-86-1,BromoBZ,C6H5Br       ,Misc,AC (ACH)5 Br ,157.0200043,1.5023,429.100,670.098,45.200,0.324,0.2510,-0.18032,0.00339178,-2.5775E-06,7.62308E-10,3.05711E-21,105.02,138.53,8.56E+01,1.65E-01,1.36E-05
108-87-2,Mcyclohexane,C7H14        ,N,CH3 (CH2)5 CH ,98.18900299,0.7731,374.079,572.098,34.754,0.368,0.2330,-0.704597,0.0082066,-4.5855E-06,7.33584E-10,1.33168E-13,-154.89,27.64,-1.60E+02,6.13E-01,4.63E-05
108-88-3,Toluene,C7H8         ,A,(ACH)5 ACCH3 ,92.14080048,0.8709,383.799,591.799,41.000,0.316,0.2596,-0.4231,0.006369,-4.3191E-06,1.30638E-09,-1.06373E-13,50.03,122.29,4.78E+01,2.38E-01,3.19E-05
108-89-4,4-M-Pyridine,C6H7N        ,NI,CH3 C5H4N ,93.12870026,0.9592,418.497,645.000,46.600,0.326,0.3010,-0.187268,0.00524564,-3.00633E-06,5.85684E-10,0,102.29,182.08,1.03E+02,2.81E-01,3.23E-05
108-90-7,Cl-BZ,C6H5Cl       ,Misc,(ACH)5 ACCL ,112.5550003,1.1070,404.898,632.400,45.200,0.308,0.2490,-0.30128,0.00500598,-4.02006E-06,1.26771E-09,0,51.87,98.36,5.05E+01,1.57E-01,1.76E-05
108-91-8,CC6Amine,C6H13N       ,Misc,(CH2)5 CHNH2 ,99.1760025,0.8714,407.648,615.000,42.000,0.360,0.3604,-0.54888,0.0075466,-4.31286E-06,8.87668E-10,0,-104.89,82.31,-1.06E+02,9.04E-01,5.13E-05
108-93-0,cycHexanol,C6H12O       ,KET,(CH2)5 CH OH ,100.1600037,0.9628,434.299,625.000,37.500,0.344,0.5280,-0.55475,0.007207,-4.08213E-06,8.22708E-10,0,-294.79,-118.05,-2.99E+02,5.96E-01,3.92E-05
108-94-1,CC6one,C6H10O       ,Misc,(CH2)4 CH2CO ,98.14450073,0.9512,428.799,627.000,39.000,0.333,0.4480,-0.3855,0.005647,-1.99119E-06,-1.56401E-10,0,-230.29,-90.87,-2.34E+02,4.70E-01,3.64E-05
108-95-2,Phenol,C6H6O        ,Misc,(ACH)5 ACOH ,94.1128006,1.0569,455.000,694.200,61.200,0.229,0.4380,-0.38105,0.0063615,-5.13225E-06,1.62358E-09,0,-96.42,-32.55,-9.79E+01,2.11E-01,2.00E-05
108-98-5,Thiophenol,C6H6S        ,MISC,,110.1800003,1.0828,442.290,689.000,47.300,0.315,0.2628,-0.0317067,0.00388644,-1.65577E-06,-3.55453E-10,3.15288E-13,111.55,147.61,1.15E+02,9.13E-02,6.02E-05
108-99-6,3-M-Pyridine,C6H7N        ,NI,CH3 C5H4N ,93.12870026,0.9620,417.299,645.000,46.500,0.311,0.2706,-0.398509,0.00601718,-3.99594E-06,1.04062E-09,0,106.19,184.62,1.06E+02,2.68E-01,3.34E-05
109-06-8,2-M-Pyridine,C6H7N        ,NI,CH3 C5H4N ,93.12870026,0.9499,402.600,621.000,46.000,0.335,0.2990,-0.3896,0.00599994,-3.97986E-06,1.03826E-09,0,99.02,177.37,9.91E+01,2.92E-01,3.30E-05
109-21-7,n-B-C4oate,C8H16O2      ,Misc,(CH3)2 (CH2)4 CH2COO ,144.2140045,0.7293,438.148,616.000,25.300,0.494,0.4852,0.171999,0.00465754,-2.03854E-06,7.67872E-10,0,-524.88,-294.10,-5.26E+02,7.61E-01,5.65E-05
109-43-3,DiC4Sebacate,C18H34O4     ,MISC,(CH2)12 (CH3)2 (CH2COO)2 ,314.4660034,0.9445,622.150,768.000,13.200,1.050,1.1245,-0.37331,0.0080026,-8.0442E-06,4.5656E-09,-1.08005E-12,-1056.00,-538.00,-1.07E+00,1.72E+00,1.22E-04
109-52-4,n-C5oicAcid,C5H10O2      ,ACID,CH3 (CH2)3 COOH ,102.1340027,0.9399,459.500,650.000,38.100,0.340,0.6137,0.13117,0.0049311,-2.87155E-06,6.48484E-10,0,-490.68,-351.00,-4.90E+02,4.50E-01,3.92E-05
109-60-4,n-P-Acetate,C5H10O2      ,ACID,CH3 (CH2)2 CH3COO ,102.1340027,0.8936,374.700,549.400,33.200,0.345,0.3885,0.15107,0.00440984,-1.6518E-06,-1.40984E-10,0,-465.99,-320.20,-4.66E+02,4.79E-01,4.20E-05
109-65-9,1-BromoC4,C4H9Br       ,Misc,(CH2)3 Br CH3 ,137.029007,1.2843,374.799,569.500,42.600,0.322,0.3390,0.016551,0.0031628,-1.97438E-06,5.0632E-10,5.4637E-21,-107.32,-12.89,-1.29E+02,3.73E-01,2.38E-05
109-66-0,n-Pentane,C5H12        ,PN,(CH3)2 (CH2)3 ,72.15100098,0.6303,309.209,469.600,33.751,0.311,0.2539,-0.0117017,0.0066328,-3.5115E-06,7.98544E-10,-4.33243E-14,-146.49,-8.65,-1.49E+02,4.57E-01,4.44E-05
109-67-1,1-Pentene,C5H10        ,N,CH3 (CH2)2 CH2=CH ,70.13500214,0.6393,303.096,464.699,35.287,0.300,0.2330,-0.0019105,0.00617238,-3.3036E-06,6.67408E-10,4.00821E-22,-20.93,78.60,-2.29E+01,3.30E-01,3.74E-05
109-69-3,1-ClC4,C4H9Cl       ,Misc,CH3 (CH2)2 CH2Cl ,92.56900024,0.8915,351.600,542.000,36.700,0.312,0.2180,-0.0282462,0.004861,-3.1749E-06,8.73536E-10,0,-147.39,-38.79,-1.49E+02,3.60E-01,3.27E-05
109-73-9,n-Butylamine,C4H11N       ,AMINE,CH3 (CH2)2 CH2NH2 ,73.13890076,0.7496,349.500,531.900,42.000,0.290,0.3290,0.0694883,0.00612384,-3.29298E-06,1.03965E-09,0,-92.11,49.03,-9.48E+01,4.70E-01,3.91E-05
109-74-0,C4-Nitrile,C4H7N        ,Misc,CH3 CH2 CH2CN ,69.10700226,0.7927,391.100,582.200,37.700,0.285,0.3730,0.22023,0.0046422,-2.37177E-06,4.31776E-10,0,34.10,108.66,3.26E+01,2.47E-01,2.51E-05
109-75-1,VAcetNitrile,C4H5N        ,Misc,CH2=CH CH2CN ,67.0904007,0.8388,391.670,584.000,38.800,0.259,0.3785,0.331648,0.003715,-1.63615E-06,2.36702E-11,1.12459E-13,157.80,200.00,1.58E+02,1.33E-01,2.11E-05
109-77-3,MaloNitrile,C3H2N2       ,Misc,,66.06240082,1.0675,491.500,715.000,40.400,0.248,0.5016,0.41301,0.0024866,-5.8305E-07,-8.3204E-10,4.19245E-13,265.50,281.00,2.66E+02,4.99E-02,6.33E-06
109-78-4,Hyd-CNitrile,C3H5NO       ,Misc,CH2 OH CH2CN ,71.07879639,1.0488,494.150,690.000,48.900,0.243,0.8265,0.086525,0.004555,-3.2421E-06,1.10576E-09,-1.3983E-13,-98.30,-35.40,-9.81E+01,2.04E-01,2.21E-05
109-79-5,nBMercaptan,C4H10S       ,MISC,CH2SH (CH2)2 CH3 ,90.18900299,0.8467,371.609,567.000,39.700,0.307,0.2784,0.197386,0.00423568,-1.7715E-06,2.58257E-10,2.05044E-20,-88.07,11.05,-8.36E+01,2.92E-01,8.23E-05
109-83-1,MethylEAmine,C3H9NO       ,Misc,(CH2)2 OH CH3NH ,75.11060333,0.9432,431.148,630.000,52.200,0.253,0.5855,-0.148825,0.0064349,-5.11185E-06,2.39052E-09,-5.1535E-13,-198.00,-61.10,-1.98E+02,4.47E-01,4.03E-05
109-86-4,M-Cellosolve,C3H8O2       ,MISC,CH3 CH2O CH2 OH ,76.09500122,0.9713,397.549,562.000,50.100,0.242,0.7311,0.154515,0.00453718,-2.31216E-06,3.833E-10,2.19733E-14,-432.00,-319.00,-4.32E+02,3.70E-01,3.78E-05
109-87-5,Methylal,C3H8O2       ,Misc,CH2 (CH3O)2 ,76.09600067,0.8668,315.000,480.600,39.500,0.213,0.2860,0.345959,0.001359546,8.14041E-06,-1.24405E-08,5.3359E-12,-348.10,-226.31,-3.48E+02,3.64E-01,4.16E-05
109-89-7,diEthylamine,C4H11N       ,AMINE,(CH3)2 CH2 CH2NH ,73.13890076,0.7077,328.600,496.500,37.100,0.301,0.2910,0.027896,0.00606098,-2.9866E-06,4.99768E-10,0,-72.43,73.00,-7.54E+01,4.81E-01,3.96E-05
109-92-2,Vinyl-E-Ethe,C4H8O        ,Misc,CH3 CH2=CH CH2O ,72.10700226,0.7927,308.700,475.000,40.700,0.257,0.2680,0.2398,0.00449074,-2.04131E-06,2.9835E-10,0,-140.29,-51.83,-1.40E+02,3.42E-01,3.64E-05
109-93-3,diVinyl-Ethe,C4H6O        ,Misc,,70.09100342,0.7430,301.450,462.000,42.500,0.250,0.2911,0.083941,0.004607,-2.64596E-06,5.82364E-10,0,-14.00,40.62,-3.28E+01,-3.28E+01,-3.28E+01
109-94-4,E-Formate,C3H6O2       ,ES,CH3 CH2 HCOO ,74.08000183,0.9298,327.500,508.500,47.300,0.229,0.2850,0.33324,0.00312832,-2.86364E-07,-7.23864E-10,0,-371.49,-303.00,-3.71E+02,4.66E-01,2.66E-05
109-97-7,Pyrrole,C4H5N        ,Misc,CH=CH CH CHNH ,67.09100342,0.9744,401.997,639.799,72.500,0.224,0.3442,-0.21475,0.005302,-3.11499E-06,7.03616E-10,0,108.39,160.30,1.08E+02,8.27E-01,2.24E-05
109-99-9,TetraHyFuran,C4H8O        ,Misc,FCH2O (CH2)3 ,72.10700226,0.8898,337.000,540.098,51.900,0.224,0.2169,0.26505,0.0071635,-5.7342E-06,2.01768E-09,0,-184.29,-79.57,-1.86E+02,-2.61E-01,-5.35E-06
110-00-9,Furan,C4H4O        ,Misc,,68.07460022,0.9389,304.500,490.200,55.000,0.218,0.2090,-0.52209,0.0063516,-5.07867E-06,1.57871E-09,0,-34.70,0.94,-3.60E+01,1.18E-01,1.70E-05
110-01-0,Thiolane,C4H8S        ,MISC,(CH2)3 CH2S ,88.1740036,1.0051,394.269,631.950,51.600,0.249,0.1988,-0.0851623,0.0043606,-1.67631E-06,-3.41819E-10,2.69519E-13,-33.76,46.02,-3.37E+01,2.68E-01,0.00E+00
1100-10-3,44-2N3PhAmin,C18H13N3O4   ,Misc,,335.3190002,1.3290,743.000,946.000,20.000,0.929,1.0900,-0.086816,0.0044072,-2.73129E-06,4.9124E-10,7.1255E-14,298.00,,2.97E+02,1.01E+00,4.15E-05
110-02-1,Thiophene,C4H4S        ,MISC,C4H4S ,84.13600159,1.0610,357.200,579.400,56.700,0.219,0.1960,-0.36405,0.005326,-4.4862E-06,1.49023E-09,0,115.79,126.10,1.19E+02,1.25E-02,4.91E-05
110-05-4,DitBPeroxide,C8H18O2      ,Misc,,146.2290039,0.7993,384.148,547.000,24.800,0.508,0.4031,-0.0544793,0.0065717,-4.85526E-06,1.92678E-09,-3.40504E-13,-341.00,-63.40,-3.41E+02,9.12E-01,6.55E-05
110-12-3,5-M-2-C6one,C7H14O       ,Misc,(CH3)2 (CH2)2 CH CH3CO ,114.1880035,0.8169,417.950,601.000,29.600,0.421,0.4344,0.0155962,0.00580174,-3.32649E-06,7.4952E-10,0,-303.99,-122.00,-3.03E+02,5.87E-01,5.81E-05
110-15-6,SuccinicAcid,C4H6O4       ,Misc,(CH2)2 (COOH)2 ,118.0889969,1.4067,591.000,806.000,47.100,0.317,0.9922,0.127687,0.00397336,-2.6633E-06,6.72616E-10,0,-822.90,-697.00,-8.23E+02,3.90E-01,2.08E-05
110-16-7,MaleicAcid,C4H4O4       ,Misc,CH=CH (COOH)2 ,116.0690002,0.8753,411.000,562.000,49.800,0.297,0.9861,0.105607,0.00365324,-2.68151E-06,7.82512E-10,0,-675.78,-586.09,-6.76E+02,1.66E-01,1.67E-05
110-17-8,FumaricAcid,C4H4O4       ,Misc,CH=CH (COOH)2 ,116.0690002,1.0745,563.150,770.000,49.800,0.297,0.9887,0.455929,0.0032774,-2.34627E-06,6.51316E-10,0,-671.93,-582.16,-6.73E+02,1.64E-01,-6.32E-06
110-18-9,Tet-M-E=DiAm,C6H16N2      ,Misc,(CH2N)2 (CH3)4 ,116.2070007,0.7790,394.150,569.000,28.200,0.443,0.3915,-0.37074,0.0078132,-5.7621E-06,2.0782E-09,-2.63435E-13,-19.72,,-2.04E+01,8.30E-01,6.11E-05
110-19-0,i-B-Acetate,C6H12O2      ,ACID,(CH3)2 CH2 CH CH3COO ,116.1600037,0.8797,389.700,562.000,30.100,0.414,0.4550,0.0629695,0.0049447,-2.21903E-06,9.48444E-11,0,-495.49,-322.00,-4.95E+02,5.96E-01,4.90E-05
110-27-0,iC3Myristate,C17H34O2     ,MISC,CH (CH2)11 CH3 CH2COO ,270.4559937,0.8566,588.000,738.000,14.000,0.969,0.9364,-0.32304,0.0079728,-7.1352E-06,3.62604E-09,-7.8335E-13,-732.80,,-7.33E+02,1.61E+00,1.24E-04
110-33-8,DiHxAdipate,C18H34O4     ,Misc,(CH2)12 (CH3)2 (CH2COO)2 ,314.4660034,0.9413,621.150,767.000,13.200,1.050,1.0935,-0.24322,0.00666916,-6.22476E-06,3.2564E-09,-7.1403E-13,-1020.00,-474.00,-1.02E+00,1.76E+00,1.88E-04
110-42-9,M-Caprate,C11H22O2     ,Misc,CH3 (CH2)8 CH3COO ,186.2940063,0.8738,505.130,682.000,22.500,0.592,0.6590,0.098221303,0.005335878,-2.57658E-06,3.36029E-10,0,-587.65,,-5.87E+02,1.04E+00,8.58E-05
110-43-0,M-Pentyl-one,C7H14O       ,Misc,CH3 (CH2)4 CH3CO ,114.1880035,0.7218,424.200,611.500,34.200,0.420,0.4830,0.430399,0.0041623,-1.27336E-06,-1.17549E-10,0,-300.39,-121.80,-2.99E+02,5.81E-01,5.83E-05
110-45-2,iPentylForma,C6H12O2      ,ACID,(CH3)2 (CH2)2 CH HCOO ,116.1600037,0.8828,396.700,577.000,30.500,0.413,0.3841,-0.237499,0.00678396,-5.46516E-06,1.83028E-09,0,-390.25,-279.80,-3.90E+02,5.99E-01,4.77E-05
110-53-2,1-BromoC5,C5H11Br      ,Misc,(CH2)4 CH3 Br ,151.0590057,1.2240,402.700,564.799,37.700,0.377,0.3840,0.00830133,0.00350098,-2.15675E-06,5.40948E-10,3.88305E-21,-129.16,-5.73,-1.53E+02,4.72E-01,2.80E-05
110-54-3,n-Hexane,C6H14        ,PN,(CH3)2 (CH2)4 ,86.17790222,0.6633,341.880,507.898,30.316,0.368,0.3007,-0.096697,0.00695298,-3.9636E-06,1.00946E-09,-6.7333E-14,-167.29,0.15,-1.70E+02,5.54E-01,5.03E-05
110-56-5,14ClC4,C4H8Cl2      ,Misc,(CH2Cl)2 (CH2)2 ,127.0130005,1.1467,427.049,641.000,36.100,0.343,0.3221,-0.0241471,0.00420078,-3.76899E-06,1.9284E-09,-4.2352E-13,-179.00,-65.90,-1.77E+02,3.57E-01,5.59E-05
110-57-6,14Cltrns2C4=,C4H6Cl2      ,Misc,(CH2Cl)2 CH=CH ,124.9970016,1.1992,429.260,646.000,37.800,0.330,0.3333,0.036938,0.00364518,-3.37368E-06,1.75581E-09,-3.84731E-13,-66.20,9.72,-6.44E+01,2.34E-01,4.90E-05
110-58-7,Pentylamine,C5H13N       ,Misc,CH3 (CH2)3 CH2NH2 ,87.16500092,0.7597,377.648,555.000,35.700,0.365,0.4070,0.0568358,0.0060822,-0.000003147,6.06836E-10,0,-112.80,60.13,-1.12E+02,5.54E-01,5.47E-05
110-59-8,ValeroNitril,C5H9N        ,Misc,CH2CN (CH2)2 CH3 ,83.1332016,0.8036,414.450,602.000,32.600,0.331,0.4152,0.20619,0.004962,-2.62724E-06,5.2968E-10,0,11.46,114.74,1.19E+01,3.67E-01,3.54E-05
110-61-2,SuccinoNitri,C4H4N2       ,Misc,(CH2CN)2 ,80.08920288,0.9892,540.150,770.000,35.200,0.300,0.5585,0.15442,0.0042737,-3.17013E-06,9.64756E-10,0,209.69,254.01,2.10E+02,1.28E-01,1.34E-05
110-62-3,n-Pentanal,C5H10O       ,KET,CH3 (CH2)3 CHO ,86.13400269,0.8138,376.000,552.000,35.200,0.333,0.4000,0.16542,0.00502918,-2.44776E-06,3.67332E-10,0,-227.99,-108.28,-2.30E+02,3.97E-01,3.55E-05
110-63-4,14-C4diol,C4H10O2      ,Misc,(CH2)4 (OH)2 ,90.12220001,1.0184,501.148,667.000,48.700,0.297,1.1892,0.0539553,0.0053122,-3.30486E-06,8.4086E-10,0,-426.70,-277.72,-4.26E+02,4.41E-01,4.49E-05
110-65-6,2C4#14Diol,C4H6O2       ,ES,(CH2)2 (OH)2 C-=C ,86.0904007,1.0299,511.148,695.000,58.600,0.256,1.1343,0.337592,0.003419,-1.49804E-06,-1.45078E-10,2.18639E-13,-155.00,-77.00,-1.54E+02,2.51E-01,2.73E-05
110-66-7,1Pentanthiol,C5H12S       ,MISC,CH2SH (CH2)3 CH3 ,104.2160034,0.8469,399.790,597.000,34.700,0.359,0.3211,0.183635,0.00451722,-2.0439E-06,4.45732E-10,-8.1085E-14,-109.79,19.37,-1.03E+02,3.84E-01,9.26E-05
110-67-8,3MtoxyC3Nitr,C4H7NO       ,Misc,CH2 CH3O CH2CN ,85.10540009,0.9448,438.148,638.000,36.300,0.324,0.4597,0.118624,0.0045639,-2.66528E-06,6.19272E-10,-2.77024E-14,-79.00,14.70,-7.89E+01,3.05E-01,2.90E-05
110-68-9,B-M-Amine,C5H13N       ,Misc,CH3NH (CH2)3 CH3 ,87.16970062,0.7040,364.250,537.000,33.200,0.357,0.3497,-0.0328918,0.00636766,-3.40503E-06,6.74568E-10,0,-93.06,,-9.28E+01,5.65E-01,5.48E-05
110-71-4,12Methoxy-C2,C4H10O2      ,Misc,(CH2)2 (CH3O)2 ,90.1230011,0.8698,357.000,536.000,38.700,0.271,0.3580,0.35785,0.00396054,-1.48337E-06,9.32552E-11,0,-346.00,-198.16,-3.45E+02,3.83E-01,4.52E-05
110-74-7,n-P-Formate,C4H8O2       ,ACID,CH3 (CH2)2 HCOO ,88.10700226,0.9110,354.100,537.000,40.600,0.285,0.3140,0.430399,0.0041623,-1.27336E-06,-1.17549E-10,0,-404.37,-293.50,-4.06E+02,6.17E-01,6.31E-06
110-77-0,EThioEthanol,C4H10OS      ,Misc,(CH2)3 OH CH2S ,106.189003,1.0202,456.648,641.000,43.200,0.325,0.7310,0.201832,0.00395916,-1.89942E-06,4.5224E-10,-4.90552E-14,-234.00,,-2.34E+02,3.80E-01,4.23E-05
110-80-5,Cellosolve,C4H10O2      ,Misc,CH3 CH2O (CH2)2 OH ,90.12200165,0.9356,408.148,567.000,42.300,0.294,0.7591,0.00656671,0.00538,-3.25764E-06,8.5966E-10,-7.06E-14,-400.00,-256.00,-4.00E+02,4.69E-01,4.49E-05
110-81-6,diE-diSulphd,C4H10S2      ,MISC,(CH2S)2 (CH3)2 ,122.2440033,0.9979,427.100,642.000,35.000,0.472,0.2740,0.220187,0.00376624,-2.21828E-06,4.88668E-10,0,-74.69,22.26,-6.84E+01,2.74E-01,1.02E-04
110-82-7,Cyclohexane,C6H12        ,N,(CH2)6 ,84.16000366,0.7825,353.880,553.200,40.530,0.308,0.2133,-0.64805,0.0072635,-2.99785E-06,1.56961E-10,-1.2908E-22,-123.19,32.26,-1.28E+02,5.20E-01,4.47E-05
110-83-8,CC6=,C6H10        ,OD,(CH2)4 CH=CH ,82.145401,0.8156,356.118,560.400,43.500,0.291,0.2142,0.158319,0.00274214,4.91859E-06,-6.64188E-09,2.2019E-12,-5.36,106.90,-5.06E+00,3.61E-01,4.89E-05
110-85-0,Piperazine,C4H10N2      ,Misc,(CH2)2 (CH2NH)2 ,86.13690186,0.6664,419.148,638.000,55.300,0.310,0.4138,-0.692593,0.00882874,-6.85014E-06,2.04553E-09,-1.03706E-13,22.30,185.00,2.08E+01,5.42E-01,2.95E-05
110-86-1,Pyridine,C5H5N        ,NI,C5H5N ,79.10160065,0.9897,388.398,620.000,56.200,0.254,0.2430,-0.284243,0.00517012,-2.86646E-06,2.76347E-10,1.7565E-13,140.29,190.55,1.38E+02,1.67E-01,2.01E-05
110-88-3,Trioxane,C3H6O3       ,Misc,(CH2O)3 ,90.07839966,1.1758,387.648,604.000,58.200,0.224,0.3337,0.101478,0.0025031,1.93387E-06,-3.34218E-09,1.15263E-12,-465.90,-337.22,-4.66E+02,4.23E-01,3.29E-05
1108-89-4,4-methylpyridine (4-picoline),C6H7N,MISC,,93.128,,418.490,645.700,46.600,0.326,0.3050,0.348529508,0.000383525,1.07683E-05,-1.50732E-08,6.19747E-12,102.13,182.08,,,
110-89-4,Piperidine,C5H11N       ,Misc,(CH2)4 CH2NH ,85.15000153,0.8668,379.600,592.000,47.600,0.289,0.2510,-0.62341,0.0073907,-3.94623E-06,7.55264E-10,0,-49.03,102.00,-4.99E+01,7.75E-01,4.68E-05
110-91-8,Morpholine,C4H9NO       ,MISC,MORPH ,87.12200165,1.0009,401.398,617.000,54.700,0.253,0.3700,-0.491259,0.00618438,-3.06003E-06,4.81948E-10,-4.10135E-22,-155.00,16.00,-1.56E+02,5.66E-01,4.05E-05
110-94-1,GluraricAcid,C5H8O4       ,Misc,(CH2)3 (COOH)2 ,132.1150055,1.2104,595.539,807.000,40.400,0.363,0.9590,-0.0698748,0.00604796,-7.73151E-06,5.9196E-09,-1.90749E-12,-844.00,-690.00,-8.44E+02,5.09E-01,2.76E-05
110-96-3,di-iB-Amine,C8H19N       ,Misc,(CH3)4 CH2 (CH)2 CH2NH ,129.2460022,0.7407,412.799,584.400,27.100,0.524,0.5480,-0.1644,0.00708466,-4.22343E-06,2.29536E-09,0,-165.54,88.20,-1.70E+02,8.96E-01,3.98E-05
110-97-4,DIsoPAmine,C6H15NO2     ,Misc,CHNH CH (CH2)2 (CH3)2 (OH)2 ,133.1900024,0.9999,521.900,672.400,37.700,0.415,0.9800,0.211628,0.00544274,-3.30249E-06,1.41181E-09,0,-428.72,-215.00,-4.31E+02,8.03E-01,2.85E-05
110-99-6,DiGlycolicA,C4H6O5       ,Misc,CH2 CH2O (COOH)2 ,134.0890045,1.5741,610.000,820.000,44.200,0.331,1.0806,0.057317,0.0042494,-3.6708E-06,1.66556E-09,-3.17455E-13,-945.00,-800.00,-9.45E+02,4.81E-01,2.24E-05
111-01-3,SQUALANE,C30H62       ,PN,(CH)6 (CH2)16 (CH3)8 ,422.821991,0.8106,720.000,863.000,8.680,1.640,0.9153,-0.30615,0.0080178,-0.000006054,2.51136E-09,-4.4737E-13,-693.30,,-6.93E+02,2.88E+00,2.32E-04