CAS Number,Name,Formula,Type,UNIFAC,MW,SG6060,TB,Tc,Pc,Vc,OMEGA,CPA,CPB,CPC,CPD,CPE,HFORM25,GFORM25,GIBBSA,GIBBSB,GIBBSC
591-96-8,23Pentadiene,C5H8         ,OD,,68.12000275,0.7005,321.398,505.799,41.400,0.275,0.2040,0.183469,0.0050907,-2.57075E-06,4.90328E-10,-1.32694E-23,138.49,205.89,1.37E+02,2.20E-01,3.03E-05
592-13-2,25-Mhexane,C8H18        ,PN,(CH3)4 (CH2)2 (CH)2 ,114.2320023,0.6973,382.256,550.059,24.865,0.482,0.3460,0.209496,0.0056558,-2.0267E-06,0,0,-222.79,9.95,-2.27E+02,7.76E-01,6.22E-05
592-27-8,2-Mheptane,C8H18        ,PN,(CH3)3 (CH2)4 CH ,114.2320023,0.7015,390.803,559.638,24.844,0.488,0.3840,-0.060366,0.006817,-0.000003705,6.91584E-10,4.03288E-14,-215.59,11.96,-2.20E+02,7.59E-01,6.22E-05
592-41-6,1-Hexene,C6H12        ,N,CH3 (CH2)3 CH2=CH ,84.16190338,0.6723,336.600,501.998,31.714,0.350,0.2850,-0.0207457,0.00630804,-3.44925E-06,7.19308E-10,-4.0201E-22,-41.70,86.90,-4.42E+01,4.27E-01,4.34E-05
592-42-7,15-Hexadiene,C6H10        ,OD,(CH2)2 (CH2=CH)2 ,82.14550018,0.6963,332.600,520.927,34.453,0.333,0.1600,0.086335,0.005655,-2.02559E-06,0,0,83.74,178.00,8.28E+01,3.03E-01,2.47E-05
592-44-9,12-Hexdiene,C6H10        ,OD,,82.145401,0.7223,349.150,526.000,33.500,0.331,0.2762,-0.094648,0.006705,-5.0112E-06,2.0754E-09,-3.73145E-13,122.40,,1.23E+02,3.01E-01,3.97E-05
592-45-0,14C6==,C6H10        ,OD,CH2=CH CH=CH CH2 CH3 ,82.145401,0.7050,338.148,509.997,33.500,0.331,0.2800,-0.0178384,0.00596202,-3.71205E-06,1.17472E-09,-1.51573E-13,71.87,,7.28E+01,2.96E-01,4.44E-05
592-57-4,13CC6==,C6H8         ,MISC,(CH2)2 (CH=CH)2 ,80.12950134,0.8481,353.489,558.000,47.300,0.277,0.2308,0.143104,0.00283148,3.84873E-06,-5.69732E-09,1.94565E-12,106.20,181.70,1.07E+02,2.41E-01,3.83E-05
592-76-7,1-Heptene,C7H14        ,N,CH3 (CH2)4 CH2=CH ,98.18900299,0.6963,366.799,537.200,28.371,0.440,0.3580,-0.033639,0.00641314,-3.57675E-06,7.74712E-10,-5.35995E-22,-62.34,95.06,-6.54E+01,5.24E-01,4.94E-05
592-84-7,n-B-Formate,C5H10O2      ,ACID,CH3 (CH2)3 HCOO ,102.1330032,0.8980,379.250,557.000,35.100,0.336,0.3844,-0.256577,0.00681048,-6.22593E-06,3.15191E-09,-6.56115E-13,-425.08,-283.67,-4.25E+02,4.59E-01,4.09E-05
592-99-4,cis4-Octene,C8H16        ,N,(CH3)2 (CH2)4 CH=CH ,112.2080002,0.7249,395.700,577.593,27.358,0.464,0.3307,0.132798,0.005677,-2.05547E-06,0,0,-91.23,,-9.13E+01,6.14E-01,5.67E-05
593-45-3,n-C18,C18H38       ,PN,(CH3)2 (CH2)16 ,254.4790039,0.7848,589.859,745.260,12.135,1.070,0.8000,-0.056861,0.0067471,-3.76926E-06,8.16552E-10,-3.4831E-22,-414.78,99.21,-4.24E+02,1.72E+00,1.23E-04
593-49-7,n-C27,C27H56       ,PN,(CH3)2 (CH2)25 ,380.7200012,0.8079,695.260,826.000,8.830,1.571,1.2136,0.3196,0.00573298,-2.13011E-06,0,0,-602.10,,-6.01E+02,2.59E+00,-2.12E-08
593-53-3,F-C1,CH3F         ,HAL,CH3 F ,34.03300095,0.4229,194.699,315.000,58.700,0.113,0.1870,0.406339,0.0025333,-6.08916E-07,-5.83624E-11,0,-233.99,-213.70,-2.34E+02,7.66E-02,1.68E-05
593-60-2,BromoC2=,C2H3Br       ,Misc,CH2=CH Br ,106.9489975,1.5246,288.950,473.000,71.800,0.200,0.2821,0.182631,0.0013186,-5.1192E-07,-1.39706E-10,1.07336E-13,78.37,80.75,7.87E+01,3.10E-03,1.32E-05
593-70-4,CH2-Cl-F,CH2ClF       ,Misc,CH2 Cl F ,68.48000336,1.2856,264.100,424.898,51.200,0.159,0.1990,0.185075,0.00204044,-1.29539E-06,3.15083E-10,7.9132E-22,-264.43,-236.64,-2.63E+02,8.33E-02,1.08E-05
594-20-7,22-ClC3,C3H6Cl2      ,HAL,(CH3)2 CCl2 ,112.9860001,1.1213,342.500,539.500,41.000,0.290,0.1980,0.0948756,0.00362624,-2.98176E-06,9.85472E-10,5.1405E-21,-175.72,-84.56,-1.77E+02,3.07E-01,1.40E-05
5943-30-6,BUTY DISULFIDE,C8H18S2,MISC,,178.35,0.9340,504.360,704.160,26.240,0.592,0.5290,0.114331371,0.004696384,-2.64693E-06,6.00673E-10,0,-158.41,53.85,-1.51E-01,6.43E-01,1.43E-07
594-36-5,2-Cl-2-M-C4,C5H11Cl      ,Misc,CCl (CH3)3 CH2 ,106.5970001,0.8916,358.799,547.000,32.000,0.354,0.2330,-0.101791,0.00547014,-3.61749E-06,9.62368E-10,9.5915E-21,-202.50,-56.48,-2.06E+02,4.88E-01,3.54E-05
594-51-4,"2,3-DIBROM0-2-METHYLBUTANE",C5H10Br2,MISC,,229.942,1.4100,444.010,668.370,42.550,0.423,0.3770,-0.025984814,0.002824538,-2.11092E-06,6.19852E-10,0,-138.91,-13.35,-1.78E-01,5.30E-01,1.63E-08
594-56-9,233M1-butene,C7H14        ,N,(CH3)4 C CH2=C ,98.18900299,0.7085,351.032,532.593,28.979,0.400,0.1927,0.0865149,0.00566478,-2.03867E-06,0,0,-86.54,85.57,-8.64E+01,5.76E-01,5.37E-05
594-82-1,2233-Mbutane,C8H18        ,PN,(CH3)6 (C)2 ,114.2320023,0.7418,379.618,567.950,28.674,0.461,0.2467,0.0238248,0.0056898,-2.07206E-06,0,0,-225.89,10.31,-2.31E+02,8.32E-01,5.05E-05
595-37-9,NeoC6oicAcid,C6H12O2      ,ACID,C CH2 (CH3)3 COOH ,116.1600037,0.9348,460.150,653.000,34.100,0.389,0.5671,-0.43143,0.007558,-7.0236E-06,3.60456E-09,-7.788E-13,-524.60,,-5.25E+02,5.88E-01,4.93E-05
59-67-6,Niacin,C6H5NO2      ,Misc,C5H4N COOH ,123.1110001,1.1608,526.000,760.000,46.400,0.349,0.5958,-0.25681,0.0041486,-1.82433E-06,-5.6092E-10,4.792E-13,-254.20,,-2.54E+02,2.82E-01,3.52E-05
598-03-8,DinC3Sulfone,C6H14O2S     ,Misc,(CH2)2 (CH3)2 (CH2)2Su ,150.2420044,1.0422,543.000,763.000,31.100,0.463,0.5821,0.141055,0.00424302,-1.68698E-06,-1.5531E-10,1.96942E-13,-468.30,-255.00,-4.69E+02,7.02E-01,5.25E-05
598-04-9,DinBSulfone,C8H18O2S     ,Misc,(CH2)4 (CH3)2 (CH2)2Su ,178.2960052,0.9909,564.000,767.000,25.400,0.569,0.6877,0.0560449,0.00497388,-2.74617E-06,5.92772E-10,1.44892E-14,-509.80,-238.00,-5.10E+02,8.94E-01,6.73E-05
598-23-2,3-M-1-Butyne,C5H8         ,OD,CH-=C CH (CH3)2 ,68.12000275,0.5993,299.500,476.000,42.100,0.271,0.1760,0.0682618,0.0059859,-3.86346E-06,1.02836E-09,2.34986E-21,136.40,205.52,1.33E+02,2.28E-01,2.65E-05
598-25-4,3M-12-C4==,C5H8         ,OD,,68.1190033,0.6908,313.976,496.483,39.921,0.276,0.1534,0.053876,0.0056506,-2.01962E-06,0,0,129.79,198.61,1.29E+02,2.26E-01,2.72E-05
598-29-8,12-IodoC3,C3H6I2       ,Misc,CH2 CH CH3 (I)2 ,295.8900146,2.4973,500.200,780.500,42.100,0.373,0.2370,0.0553785,0.001230352,-8.89002E-07,2.64198E-10,-3.95023E-22,35.98,74.52,-3.33E+01,2.88E-01,7.40E-06
598-53-8,M-i-P-Ether,C4H10O       ,Misc,(CH3)2 CH CH3O ,74.1230011,0.7247,303.898,464.497,37.600,0.277,0.2660,0.18265,0.0049909,-1.99935E-06,1.62674E-10,0,-252.19,-120.88,-2.54E+02,4.35E-01,3.81E-05
598-58-3,METHYL NITRATE,CH3N03,MISC,,77.04,0.0000,339.160,0.000,0.000,0.000,0.0000,0.221300623,0.00312474,-1.94263E-06,4.53063E-10,0,-120.50,-30.17,-1.22E-01,3.06E-01,8.22E-09
598-73-2,BrTriFC2=,C2BrF3       ,Misc,,160.9210052,1.8725,270.650,432.000,44.800,0.239,0.1754,0.20943,0.00148806,-1.59891E-06,8.292E-10,-1.6884E-13,-455.00,-438.00,-4.55E+02,5.93E-02,-4.25E-06
598-75-4,3-M-2-C4ol,C5H12O       ,OL,(CH3)3 (CH)2 OH ,88.14920044,0.8237,384.648,572.000,39.600,0.327,0.3510,-0.00357665,0.00613826,-3.55296E-06,7.95208E-10,0,-314.10,53.00,-3.14E+02,5.33E-01,4.99E-05
598-82-3,LacticAcid,C3H6O3       ,Misc,CH3 CH OH COOH ,90.07839966,1.2220,455.000,627.000,59.600,0.251,1.0296,0.0377592,0.00483878,-4.15227E-06,1.9358E-09,-3.84199E-13,-621.00,-516.00,-6.21E+02,3.45E-01,2.42E-05
5989-27-5,D-Limonene,C10H16       ,OC,(CH3)2 CH=C CH2=C CH (CH2)3 ,136.2050018,0.8482,449.648,650.000,27.500,0.524,0.3123,-0.557842,0.00831308,-6.95415E-06,3.14274E-09,-5.9502E-13,-6.40,0.00,-6.53E+00,9.65E-01,6.09E-05
59919-41-4,26-DiE-Napth,C14H16       ,AMR,(CH3)2 (AC)2 (ACH)6 (ACCH2)2 ,184.2810059,1.0236,576.000,807.000,25.800,0.630,0.5118,0.021322,0.0043858,-3.5418E-07,-2.04384E-09,8.815E-13,43.10,,4.38E+01,6.11E-01,6.52E-05
599-64-4,pCumylPhenol,C15H16O      ,Misc,(ACH)9 (AC)2 C (CH3)2 OH ,212.2910004,1.0803,608.150,834.000,26.800,0.659,0.6602,-0.503202,0.00721822,-6.25323E-06,2.77089E-09,-5.004E-13,-65.60,143.00,-6.59E+01,6.83E-01,5.80E-05
59973-07-8,METHYL-NONYL-SULFIDE,C10H22S,MISC,,174.344,0.8410,513.160,701.030,21.410,0.650,0.5510,0.070802551,0.00545198,-2.79969E-06,5.57392E-10,0,-205.23,68.70,-1.98E-01,8.51E-01,1.45E-07
59973-08-9,ETHYL-NONYL-5ULFIDE,C11H24S,MISC,,188.371,0.8410,533.160,717.910,19.630,0.706,0.5920,0.044906063,0.005570921,-2.8704E-06,5.7185E-10,0,-228.24,74.06,-2.21E-01,9.41E-01,1.57E-07
60-00-4,C2=DiAmTetAA,C10H16N2O8   ,Misc,,292.2460022,1.1803,661.150,809.000,22.300,0.798,1.6923,-0.16713,0.0056484,-5.3532E-06,2.67108E-09,-5.6425E-13,-1520.00,,,1.33E+00,4.51E-05
600-07-7,2MC4oicAcid,C5H10O2      ,ACID,(CH3)2 CH CH2 COOH ,102.1330032,0.9409,450.148,643.000,38.900,0.347,0.5894,-0.180172,0.00590966,-4.08558E-06,1.3456E-09,-1.73397E-13,-498.00,-352.00,-4.98E+02,4.77E-01,4.33E-05
600-24-8,2-NitroC4,C4H9NO2      ,MISC,CHNO2 (CH3)2 CH2 ,103.1200027,0.9878,412.898,615.000,36.000,0.336,0.3570,-0.11697,0.00535578,-3.45246E-06,8.8896E-10,-7.50455E-23,-163.59,-6.23,-1.67E+02,5.29E-01,3.08E-05
6006-33-3,n-Tridecylcyclohexane,C19H38,MISC,,266.509,0.8210,614.660,783.380,12.420,1.033,0.7000,-0.279682862,0.007314575,-4.25089E-06,9.30663E-10,0,-398.65,132.17,-4.10E-01,1.78E+00,1.16E-07
6006-34-4,n-Tridecylcyclopentane,C18H36,MISC,,252.482,0.8140,598.560,766.470,13.070,0.985,0.6970,-0.303324593,0.007373199,-4.57181E-06,1.16127E-09,0,-353.76,136.98,-3.64E-01,1.64E+00,1.21E-07
6006-95-7,n-Pentadecylcyclohexane,,MISC,,294.57,,,,,,,FALSE,FALSE,FALSE,FALSE,FALSE,,,,,
60-09-3,pAminoAzoBZ,C12H11N3     ,Misc,,197.2400055,0.9701,633.000,877.000,29.000,0.642,0.6345,-0.875456,0.0092759,-1.06089E-05,6.05368E-09,-1.35855E-12,330.00,500.00,3.28E+02,5.71E-01,2.16E-05
60-12-8,2PHEthanol,C8H10O       ,Misc,ACCH2 (ACH)5 CH2 OH ,122.1660004,1.0259,492.049,684.000,39.200,0.387,0.7429,-0.369108,0.0064905,-5.31159E-06,2.36552E-09,-4.75131E-13,-121.00,-2.85,-1.21E+02,3.81E-01,4.54E-05
6012-97-1,Cl4Thiophene,C4Cl4S       ,Misc,,221.9210052,1.7120,506.540,753.000,36.700,0.428,0.3608,0.0419225,0.00243104,-2.85186E-06,1.58042E-09,-3.36329E-13,-32.77,0.00,-3.28E+01,-3.28E+01,-3.28E+01
60-24-2,2_MercEthanl,C2H6OS       ,Misc,CH2 OH CH2SH ,78.13500214,1.1198,430.898,629.000,62.700,0.219,0.6716,0.339491,0.00286288,-1.05707E-06,-1.69273E-11,5.9973E-14,-197.00,,-1.97E+02,2.02E-01,2.88E-05
60-29-7,diE-Ether,C4H10O       ,Misc,(CH3)2 CH2 CH2O ,74.1230011,0.7127,307.600,466.700,36.200,0.280,0.2810,0.289159,0.00453458,-1.39721E-06,-1.26318E-10,0,-252.39,-120.70,-2.54E+02,4.30E-01,3.89E-05
6032-29-7,2-Pentanol,C5H12O       ,OL,(CH3)2 (CH2)2 CH OH ,88.14920044,0.8152,392.148,552.000,38.700,0.327,0.6746,0.0260664,0.00605998,-3.52326E-06,8.04796E-10,0,-313.79,-159.29,-3.13E+02,5.39E-01,5.01E-05
60-33-3,LinoleicAcid,C18H32O2     ,Misc,CH3 (CH2)12 (CH=CH)2 COOH ,280.4500122,0.9096,627.000,775.000,13.000,0.990,1.1762,-0.427281,0.00792778,-7.1997E-06,3.52099E-09,-6.72255E-13,-540.00,-94.30,-5.39E+02,1.45E+00,1.30E-04
603-35-0,TriPHPhosphi,C18H15P      ,Misc,,262.2900085,1.0739,650.150,1008.000,78.400,0.554,0.4517,-0.558922,0.00704528,-6.80982E-06,3.43688E-09,-7.041E-13,320.20,0.00,-3.28E+01,-3.28E+01,-3.28E+01
60-35-5,Acetamide,C2H5NO       ,MISC,CH3 CONH2 ,59.06800079,1.0591,494.299,750.000,65.000,0.215,0.3807,0.287443,0.0023833,1.66435E-06,-3.05335E-09,1.03816E-12,-238.30,-159.60,-2.38E+02,2.64E-01,0.00E+00
604-88-6,HEXAETHYLBENZENE,C18H30,MISC,,246.435,0.0000,571.160,734.780,13.820,0.936,0.6980,-0.05789762,0.006909733,-4.80898E-06,1.36888E-09,0,-224.26,182.46,-2.31E-01,1.36E+00,7.62E-08
605-01-6,Penta-E-BZ,C16H26       ,A,ACH (ACCH2)5 (CH3)5 ,218.3800049,0.8982,550.200,723.598,16.100,0.823,0.6370,-0.0691088,0.0066764,-4.45719E-06,1.20564E-09,2.88544E-21,-175.17,164.98,-1.81E+02,1.14E+00,7.17E-05
605-02-7,1PhNaphthln,C16H12       ,MISC,(ACH)12 C=C (AC)2 ,204.2700043,1.0970,607.150,861.806,28.913,0.614,0.4889,-0.667300483,0.007425437,-6.3968E-06,2.16771E-09,0,354.21,371.11,3.54E+02,4.15E-01,4.75E-05
606-20-2,26NitroTolue,C7H6N2O4     ,Misc,CH3 (ACH)3 AC (ACNO2)2 ,182.1360016,1.3331,558.000,770.000,34.000,0.455,0.7378,0.01207892,0.003676605,-2.25612E-06,4.79863E-10,0,-51.10,0.00,-5.16E+01,7.43E-01,2.75E-05
6064-63-7,HyCaproAcid,C6H12O3      ,Misc,CH3 (CH2)3 CH OH COOH ,132.1580048,1.1352,576.000,758.000,36.400,0.402,1.1628,-0.0283085,0.00564474,-4.39929E-06,1.83266E-09,-3.31234E-13,-683.00,-487.00,-6.83E+02,6.44E-01,4.56E-05
606-95-7,1-CYCLOPENTYLHEXADECANE,C21H42,MISC,,294.563,0.8190,637.160,797.250,10.720,1.153,0.7480,-0.272688695,0.007304312,-4.50362E-06,1.133E-09,0,-415.60,162.30,-4.27E-01,1.93E+00,1.39E-07
609-26-7,2M-3Epentane,C8H18        ,PN,(CH3)4 (CH2)2 (CH)2 ,114.2320023,0.7230,388.803,567.088,27.003,0.443,0.3400,0.123798,0.0056758,-2.05361E-06,0,0,-211.29,19.23,-2.16E+02,7.74E-01,6.22E-05
6094-02-06,2-methyl-1-hexene,C7H14,MISC,,98.188,0.6980,364.990,538.000,28.700,0.398,0.3090,0.136666395,0.00549558,-1.76916E-06,-6.42135E-10,3.58384E-13,-77.23,82.51,-8.03E-02,5.30E-01,4.89E-08
6094-02-6,2M1C6=,C7H14        ,N,CH2=C (CH3)2 (CH2)3 ,98.1882019,0.7074,364.989,538.000,28.700,0.398,0.3094,0.185209,0.00518612,-1.09627E-06,-1.24071E-09,5.44555E-13,-77.23,,-7.65E+01,5.16E-01,5.73E-05
610-39-9,34NitroTolue,C7H6N2O4     ,Misc,CH3 (ACH)3 AC (ACNO2)2 ,182.1360016,1.3093,610.000,842.000,34.000,0.487,0.7371,0.01207892,0.003676605,-2.25612E-06,4.79863E-10,0,-14.00,0.00,-1.45E+01,6.19E-01,2.75E-05
611-14-3,1M2-EBenzene,C9H12        ,A,CH3 (ACH)4 ACCH3 ACCH2 ,120.1940002,0.8840,438.325,650.927,30.399,0.458,0.2940,-0.1848,0.0060846,-3.91944E-06,1.13362E-09,8.8093E-14,1.10,131.08,-1.30E+00,4.30E-01,4.38E-05
611-15-4,o-MStyrene,C9H10        ,AU,CH2=CH (ACH)4 AC ACCH3 ,118.1790009,0.9138,442.989,679.260,36.473,0.375,0.2503,-0.514198,0.0057906,-2.20706E-06,0,0,118.40,213.97,1.17E+02,3.15E-01,3.71E-05
61142-36-7,2M3E-15-C6==,C9H16        ,OD,(CH3)2 (CH2)2 CH CH2=CH CH2=C ,124.2220001,0.7661,418.148,622.039,26.448,0.500,0.2400,0.0204469,0.0057066,-2.09465E-06,0,0,6.70,,6.25E+00,5.99E-01,5.44E-05
6117-80-2,ci214C4=diol,C4H8O2       ,ACID,(CH2)2 CH=CH (OH)2 ,88.10630035,1.0803,509.997,670.000,52.000,0.279,1.1736,0.189928,0.00407468,-1.74137E-06,1.22819E-10,0,-295.00,-186.69,-2.95E+02,2.70E-01,3.73E-05
612-00-0,11DiPHEthane,C14H14       ,AB,CH3 AC (ACH)10 ACCH ,182.2640076,1.0040,545.780,775.000,26.800,0.604,0.4566,-0.582605,0.00739524,-6.46845E-06,2.97332E-09,-5.63685E-13,116.00,270.00,1.16E+02,4.97E-01,5.96E-05
612-94-2,2PhNaphthln,C16H12       ,MISC,(ACH)12 C=C (AC)2 ,204.2700043,1.0970,618.150,870.707,27.817,0.640,0.5131,-0.667300483,0.007425437,-6.3968E-06,2.16771E-09,0,354.21,,3.54E+02,4.15E-01,4.75E-05
6145-31-9,12E-PhosAcid,C2H8O6P2     ,Misc,,190.029007,-32.7975,-32493.850,-32493.850,-327.670,-32767.000,-32767.0000,0.10683,0.003397,-2.65623E-06,1.01792E-09,-1.557E-13,-32.77,,-3.28E+01,-3.28E+01,-3.28E+01
616-02-4,M-Maleic_Anh,C5H4O3       ,Misc,,112.0849991,1.2543,486.150,721.000,58.400,0.272,0.5695,-0.22422,0.0051562,-4.7826E-06,2.25408E-09,-4.28095E-13,-447.19,,-4.48E+02,2.14E-01,1.54E-05
616-12-6,3Mtr2pentene,C6H12        ,N,(CH3)3 CH2 CH=C ,84.16190338,0.7015,343.578,521.481,32.929,0.351,0.2690,0.0955,0.005659,-2.0312E-06,0,0,-63.14,71.30,-6.13E+01,4.30E-01,4.61E-05
616-21-7,12-DiCl-C4,C4H8Cl2      ,Misc,CH2 CH3 CH2Cl CHCl ,127.0130005,1.1237,397.150,600.000,36.800,0.343,0.2988,0.013405,0.0038914,-2.97939E-06,1.21208E-09,-2.0939E-13,-190.10,,-1.89E+02,3.52E-01,5.51E-05
6163-64-0,C1tC4Sulfide,C5H12S       ,Misc,C (CH3)3 CH3S ,104.2160034,0.8306,372.048,570.000,35.400,0.360,0.2334,0.036949,0.0054604,-3.4647E-06,1.0624E-09,-1.2385E-13,-121.00,,-1.21E+02,4.16E-01,4.63E-05
6163-66-2,di-trt-B-Eth,C8H18O       ,Misc,,130.2310028,0.7819,382.200,550.000,24.100,0.490,0.3220,0.0465153,0.00593878,-3.13866E-06,6.21204E-10,0,-364.84,-97.70,-3.69E+02,8.90E-01,6.28E-05
616-39-7,diE-M-Amine,C5H13N       ,Misc,(CH3)2 (CH2)2 CH3N ,87.16970062,0.7027,339.148,512.411,33.915,0.337,0.2866,-0.1448,0.006396,-2.52593E-06,0,0,-79.00,,-7.95E+01,5.94E-01,5.04E-05
616-44-4,3MThiophene,C5H6S        ,Misc,CH3 C4H3S ,98.16000366,1.0274,388.600,615.000,49.500,0.275,0.2420,-0.235805,0.0050735,-3.83871E-06,1.15779E-09,2.9279E-21,82.80,121.84,8.64E+01,9.99E-02,6.25E-05
616-45-5,2-Pyrrolidon,C4H7NO       ,Misc,CH2 CH2CO CH2NH ,85.10569763,1.1169,524.320,802.000,61.700,0.264,0.4324,-0.2837,0.0053136,-2.89611E-06,4.7104E-10,6.1655E-14,-197.38,-84.73,-1.98E+02,3.67E-01,3.48E-05
617-48-1,MalicAcid,C4H6O5       ,Misc,CH3 C OH COOH ,134.0890045,1.2213,602.000,781.000,50.700,0.331,1.5298,0.0727888,0.00456538,-4.53375E-06,2.41338E-09,-5.35325E-13,-990.00,-848.00,-9.90E+02,4.72E-01,1.87E-05
617-78-7,3-Epentane,C7H16        ,PN,(CH3)3 (CH2)3 CH ,100.2050018,0.7018,366.622,540.640,28.908,0.416,0.3140,0.154598,0.00565916,-2.03153E-06,0,0,-189.79,11.40,-1.93E+02,6.67E-01,5.64E-05
617-84-5,DEFormamide,C5H11NO      ,MISC,(CH3)2 DMF-2 ,101.1500015,0.9116,450.148,671.518,34.568,0.418,0.4631,-0.009372404,0.005706885,-3.49784E-06,8.26512E-10,0,-164.58,,-1.65E+02,5.48E-01,4.23E-05
617-94-7,DMPHCarbinol,C9H12O       ,Misc,(ACH)5 AC C OH (CH3)2 ,136.1900024,0.9724,475.170,702.039,36.861,0.404,0.4008,-0.428655741,0.006900051,-5.13388E-06,1.49126E-09,0,-153.54,-231.00,-1.54E+02,5.12E-01,4.78E-05
618-46-2,mClBenzoylCl,C7H4Cl2O     ,Misc,,175.0140076,1.4425,498.000,724.000,36.800,0.406,0.4542,0.016595,0.0033126,-2.78313E-06,1.16504E-09,-1.96595E-13,-131.40,-97.80,-1.30E+02,2.10E-01,3.87E-05
618-85-9,35NitroTolue,C7H6N2O4     ,Misc,CH3 (ACH)3 AC (ACNO2)2 ,182.1360016,1.2971,588.000,814.000,34.000,0.473,0.7023,0.01207892,0.003676605,-2.25612E-06,4.79863E-10,0,-43.00,0.00,-4.35E+01,7.16E-01,2.75E-05
619-15-8,25NitroTolue,C7H6N2O4     ,Misc,CH3 (ACH)3 AC (ACNO2)2 ,182.1360016,1.3417,590.000,814.000,34.000,0.472,0.7401,0.01207892,0.003676605,-2.25612E-06,4.79863E-10,0,-34.00,0.00,-3.45E+01,6.86E-01,2.75E-05
619-66-9,4CoxyBZAldyd,C8H6O3       ,Misc,(AC)2 (ACH)4 CHO COOH ,150.1340027,1.7392,702.000,966.000,38.200,0.393,0.8174,0.010932,0.0029266,7.8855E-07,-2.45856E-09,8.7575E-13,-432.00,,-4.33E+02,2.95E-01,2.79E-05
619-82-9,14-CC6DiAcid,C8H12O4      ,Misc,(CH)2 (CH2)4 (COOH)2 ,172.1809998,1.4659,669.000,889.000,34.200,0.464,1.0362,-0.24657,0.0048594,-1.59225E-06,-1.12804E-09,6.6825E-13,-877.00,-643.00,-8.79E+02,7.76E-01,4.70E-05
619-99-8,3-Ehexane,C8H18        ,PN,(CH3)3 (CH2)4 CH ,114.2320023,0.7171,391.690,565.489,26.081,0.455,0.3640,0.153998,0.0056716,-2.04761E-06,0,0,-210.99,17.11,-2.15E+02,7.56E-01,6.23E-05
620-14-4,1M3-EBenzene,C9H12        ,A,CH3 (ACH)4 ACCH3 ACCH2 ,120.1940002,0.8682,434.476,637.039,28.371,0.488,0.3600,-0.1545,0.005486,-2.29265E-06,-4.32864E-10,4.15023E-13,-1.93,126.44,-4.70E+00,4.25E-01,4.56E-05
62016-13-1,2M3i-Phexane,C10H22       ,PN,(CH3)5 (CH2)2 (CH)3 ,142.2850037,0.7506,439.871,623.427,22.891,0.529,0.3929,0.13,0.005696,-2.08049E-06,0,0,-248.74,37.99,-2.61E+02,9.80E-01,7.35E-05
620-17-7,m-E-Phenol,C8H10O       ,Misc,CH3 (ACH)4 ACCH2 ACOH ,122.1660004,1.0259,491.600,718.799,41.500,0.400,0.4745,-0.0373534,0.00508426,-3.26691E-06,1.01376E-09,0,-146.59,-25.01,-1.46E+02,3.90E-01,4.46E-05
62103-66-6,NONYL-PROPYL-8ULFIDE,C12H26S,MISC,,202.397,0.8420,552.160,733.680,18.060,0.762,0.6310,0.047723039,0.005557395,-2.75641E-06,5.20512E-10,0,-248.99,81.92,-2.41E-01,1.03E+00,1.67E-07
62155-12-8,METHYL-NONADECYL-SULFIDE,C20H42S,MISC,,314.612,0.0000,671.160,832.330,10.270,1.210,0.7950,0.000276531,0.006092584,-3.36859E-06,7.33475E-10,0,-411.33,152.80,-4.00E-01,1.78E+00,2.49E-07
621-77-2,TriAmylAmine,C15H33N      ,Misc,(CH2)11 (CH3)3 CH2N ,227.4340057,0.7940,516.150,660.000,15.000,0.893,0.8526,-0.25413,0.00765338,-5.51262E-06,2.13046E-09,-3.5469E-13,-294.00,,-2.94E+02,1.53E+00,1.26E-04
622-45-7,CC6_Acetate,C8H14O2      ,MISC,CH (CH2)5 CH3COO ,142.197998,0.9740,447.150,648.000,31.200,0.436,0.4209,-0.48805,0.0084334,-8.7771E-06,4.9088E-09,-1.09795E-12,-503.00,,-5.04E+02,7.88E-01,4.42E-05
622-96-8,1M4-EBenzene,C9H12        ,A,CH3 (ACH)4 ACCH3 ACCH2 ,120.1940002,0.8645,435.161,640.372,29.385,0.473,0.3220,-0.125888,0.0052968,-2.00204E-06,-6.00984E-10,4.46473E-13,-2.05,130.28,-5.95E+00,4.30E-01,4.68E-05
622-97-9,p-MStyrene,C9H10        ,AU,CH2=CH (ACH)4 AC ACCH3 ,118.1790009,0.9250,445.928,675.927,35.439,0.381,0.2825,-0.5432,0.005795,-2.21303E-06,0,0,114.64,210.20,1.13E+02,3.15E-01,3.71E-05
623-27-8,Terealdehyde,C8H6O2       ,Misc,(AC)2 (ACH)4 (CHO)2 ,134.1340027,1.2594,519.650,739.000,36.700,0.383,0.5832,-0.38998,0.0060662,-4.4244E-06,1.30536E-09,-6.5835E-14,-157.30,,-1.59E+02,2.36E-01,2.12E-06
623-37-0,3-hexanol,C6H14O,MISC,,102.177,,582.400,33.600,383.000,0.000,0.0000,0,0,0,0,0,0.00,0.00,,,