CAS Number,Name,Formula,Type,UNIFAC,MW,SG6060,TB,Tc,Pc,Vc,OMEGA,CPA,CPB,CPC,CPD,CPE,HFORM25,GFORM25,GIBBSA,GIBBSB,GIBBSC
111-11-5,M-Caprylate,C9H18O2      ,Misc,CH3 (CH2)6 CH3COO ,158.2400055,0.8783,466.850,647.000,25.500,0.511,0.5620,0.127123358,0.005081143,-2.3458E-06,2.45197E-10,0,-546.37,,-5.46E+02,8.52E-01,7.13E-05
111-13-7,2-Octanone,C8H16O       ,Misc,(CH2)5 CH3 CH3CO ,128.2140045,0.8243,446.150,632.700,26.400,0.497,0.4549,0.54215,0.0030196,2.09406E-06,-3.58216E-09,1.1776E-12,-321.60,-113.80,-3.21E+02,6.74E-01,6.58E-05
111-14-8,n-C7oicAcid,C7H14O2      ,ES,(CH2)5 CH3 COOH ,130.1869965,0.9233,496.150,677.300,30.430,0.468,0.7564,0.095832,0.005294,-3.1269E-06,8.5584E-10,-1.17455E-13,-536.20,-332.00,-5.36E+02,6.61E-01,5.45E-05
111-15-9,2EtxyEC2oate,C6H12O3      ,Misc,CH3 (CH2)2 CH3COO CH2O ,132.1580048,0.9803,429.450,597.000,24.600,0.459,0.5332,-0.319512,0.00693286,-6.67092E-06,3.61021E-09,-8.46495E-13,-611.00,-422.00,-6.11E+02,6.20E-01,4.85E-05
111-16-0,PimelicAcid,C7H12O4      ,Misc,(CH2)5 (COOH)2 ,160.1690063,1.2080,615.250,805.000,31.400,0.469,1.1158,0.116543,0.0048417,-3.68247E-06,1.50069E-09,-2.73943E-13,-885.00,,-8.85E+02,6.99E-01,4.17E-05
1111-74-6,DMSilane,C2H8Si       ,Misc,(CH3)2 SIH2 ,60.17100143,0.5920,253.550,401.997,35.600,0.258,0.1322,0.464178,0.00364766,2.75048E-07,-2.0951E-09,7.87385E-13,-94.70,-19.58,-9.47E+01,2.52E-01,0.00E+00
111-20-6,Sebacic_Acid,C10H18O4     ,Misc,(CH2)8 (COOH)2 ,202.2510071,1.1324,642.090,815.000,23.500,0.658,1.2053,0.086575,0.0052066,-3.6669E-06,1.32628E-09,-2.045E-13,-921.90,-623.00,-9.22E+02,9.84E-01,6.36E-05
1112-39-6,DC1DC1oxSila,C4H12O2Si    ,Misc,SIO (CH3)3 CH3O ,120.223999,0.8688,354.550,524.000,26.600,0.441,0.2629,0.023305,0.0048308,-2.7021E-06,5.5192E-10,2.43585E-15,-684.10,,-6.84E+02,5.67E-01,0.00E+00
111-26-2,Hexylamine,C6H15N       ,Misc,CH3 (CH2)4 CH2NH2 ,101.1920013,0.7688,404.648,582.000,31.800,0.418,0.4671,0.36169,0.00483864,-1.59918E-06,1.9095E-11,0,-132.99,66.30,-1.32E+02,6.46E-01,6.28E-05
111-27-3,1-Hexanol,C6H14O       ,OL,CH3 (CH2)5 OH ,102.177002,0.8237,430.200,611.000,34.700,0.381,0.5600,0.047113,0.0057693,-2.94778E-06,5.31372E-10,0,-317.79,-134.13,-3.23E+02,6.03E-01,5.12E-05
111-29-5,15-C5diol,C5H12O2      ,Misc,(CH2)5 (OH)2 ,104.1490021,1.0029,512.150,672.000,41.500,0.345,1.2199,0.0516565,0.00538864,-3.19272E-06,7.53724E-10,0,-448.99,-275.00,-4.48E+02,5.41E-01,5.30E-05
111-30-8,Glutaldehyde,C5H8O2       ,Misc,(CH2)2 (CHO)2 ,100.1169968,1.0192,461.150,660.000,35.900,0.347,0.5373,0.40868,0.0036812,-2.09136E-06,7.3364E-10,-1.75675E-13,-307.70,,-3.07E+02,3.38E-01,3.20E-05
111-31-9,1Hexanethiol,C6H14S       ,MISC,CH2SH CH3 (CH2)4 ,118.2360001,0.8470,425.799,622.000,30.100,0.426,0.3720,0.131106,0.00486596,-2.32052E-06,4.24116E-10,-6.6453E-22,-128.99,27.82,-1.24E+02,4.77E-01,1.03E-04
111-34-2,Vinyl-B-Ethe,C6H12O       ,Misc,CH3 (CH2)2 CH2=CH CH2O ,100.1610031,0.7840,366.970,536.000,31.100,0.364,0.3802,0.0754085,0.00532374,-2.68352E-06,4.6078E-10,0,-182.99,-36.20,-1.82E+02,5.37E-01,5.19E-05
111-36-4,nBIsoCyanate,C5H9NO       ,Misc,,99.13240051,0.8928,388.148,568.000,34.400,0.360,0.4145,0.227345,0.00344174,-2.54475E-07,-1.01172E-09,3.01007E-13,-127.00,1.96,-1.26E+02,4.17E-01,4.61E-05
111-40-0,DiC2=TrAmine,C4H13N3      ,Misc,CH2 (CH2NH2)2 CH2NH ,103.1660004,0.9632,480.250,676.000,42.200,0.342,0.7002,-0.107456,0.00669588,-5.34075E-06,2.44761E-09,-4.98167E-13,-5.86,207.29,-6.11E+00,7.00E-01,5.28E-05
111-41-1,nAminoEC2ol,C4H12N2O     ,Misc,(CH2)2 OH CH2NH2 CH2NH ,104.1520004,1.0350,517.000,698.000,44.600,0.328,1.0473,-0.15411,0.00660248,-5.49123E-06,2.57522E-09,-5.1839E-13,-191.00,3.81,-1.91E+02,6.39E-01,5.01E-05
111-42-2,DEAmine,C4H11NO2     ,MISC,CH2NH (CH2)3 (OH)2 ,105.1380005,1.0960,542.150,715.260,32.729,0.377,1.0467,-0.050743,0.00336824,-2.46345E-06,0,0,-396.80,-214.08,-3.88E+02,5.83E-01,1.45E-04
111-43-3,diP-Ether,C6H14O       ,Misc,(CH3)2 (CH2)3 CH2O ,102.177002,0.7510,363.200,530.598,30.300,0.386,0.3690,0.18235,0.0052248,-2.23775E-06,2.39148E-10,0,-293.09,-105.56,-2.96E+02,6.22E-01,5.09E-05
111-46-6,DEGlycol,C4H10O3      ,MISC,(CH2)3 CH2O (OH)2 ,106.1220016,1.1217,518.150,744.598,46.000,0.312,0.6211,-0.20934,0.00486088,0,0,0,-571.20,-409.00,-5.47E+02,5.45E-01,-6.24E-07
111-47-7,P-Sulphide,C6H14S       ,MISC,CH2S (CH2)3 (CH3)2 ,118.2360001,0.8424,416.000,609.700,31.600,0.426,0.3760,0.14303,0.00461534,-1.82704E-06,2.18706E-10,3.78458E-21,-125.35,33.22,-1.20E+02,4.82E-01,1.05E-04
111-48-8,ThioDiGlycol,C4H10O2S     ,Misc,(CH2)3 (OH)2 CH2S ,122.1880035,1.1891,555.150,731.000,46.100,0.343,1.1764,0.197113,0.00392728,-2.51626E-06,1.17965E-09,-3.2362E-13,-384.00,,-3.84E+02,4.51E-01,4.21E-05
111-49-9,HxC1=imine,C6H13N       ,Misc,(CH2)5 CH2NH ,99.1760025,0.8834,404.850,615.000,42.700,0.361,0.3296,-0.837768,0.00809932,-4.79316E-06,1.06281E-09,0,-34.18,151.38,-3.50E+01,7.49E-01,6.03E-05
111-55-7,EGly-DiAceta,C6H10O4      ,Misc,(CH2)2 (CH3COO)2 ,146.1430054,1.1120,463.648,652.000,30.800,0.416,0.5595,-0.0530384,0.00502224,-3.59955E-06,1.01905E-09,0,-806.98,-631.00,-8.07E+02,6.13E-01,3.87E-05
111-65-9,n-Octane,C8H18        ,PN,(CH3)2 (CH2)6 ,114.2320023,0.7060,398.820,568.598,24.966,0.486,0.4018,-0.2701,0.00799658,-0.000005919,2.49118E-09,-4.69068E-13,-208.59,16.27,-2.13E+02,7.48E-01,6.24E-05
111-66-0,1-Octene,C8H16        ,N,CH3 (CH2)5 CH2=CH ,112.2080002,0.7142,394.398,566.598,26.243,0.464,0.3860,-0.053958,0.006543,-3.8343E-06,1.00642E-09,-6.9998E-14,-82.98,103.20,-8.65E+01,6.21E-01,5.55E-05
111-67-1,cis2-Octene,C8H16        ,N,(CH3)2 (CH2)4 CH=CH ,112.2080002,0.7278,398.799,581.481,27.765,0.464,0.3415,0.128097,0.0056796,-2.05847E-06,0,0,-91.23,,-9.12E+01,6.13E-01,5.71E-05
111-68-2,nC7Amine,C7H17N       ,Misc,(CH2)5 CH3 CH2NH2 ,115.2190018,0.7795,430.049,607.000,28.500,0.471,0.5113,-0.0276162,0.00657412,-4.00419E-06,1.24978E-09,-1.90262E-13,-153.00,75.32,-1.53E+02,7.43E-01,6.95E-05
111-69-3,AdipoNitrile,C6H8N2       ,Misc,(CH2CN)2 (CH2)2 ,108.1380005,0.9681,568.150,770.000,28.300,0.406,0.6723,-0.124798,0.0059896,-4.73175E-06,1.4518E-09,0,149.49,253.31,1.49E+02,3.84E-01,2.55E-05
111-70-6,1-Heptanol,C7H16O       ,Misc,CH3 (CH2)6 OH ,116.2040024,0.8273,449.799,632.000,31.600,0.435,0.5600,0.422436,0.00583674,-2.96826E-06,5.2062E-10,0,-331.99,-119.56,-3.39E+02,7.01E-01,5.71E-05
111-71-7,n-Heptanal,C7H14O       ,Misc,CH3 (CH2)5 CHO ,114.1880035,0.8218,425.950,602.000,27.000,0.421,0.4865,0.3623,0.00446354,-1.56112E-06,5.11344E-11,0,-263.00,-86.65,-2.67E+02,5.90E-01,4.73E-05
111-76-2,B-Cellosolve,C6H14O2      ,Misc,OH (CH2)4 CH2O CH3 ,118.1760025,0.9051,444.470,600.000,32.200,0.400,0.8174,-0.192395,0.00689182,-6.08175E-06,3.37692E-09,-8.89705E-13,-441.00,,-4.41E+02,6.89E-01,5.94E-05
111-77-3,2(2MxEx)Enol,C5H12O3      ,Misc,(CH2)3 OH CH2O CH3O ,120.1480026,1.0281,466.750,630.000,35.400,0.367,0.8707,-0.16722,0.0065376,-6.5988E-06,4.2956E-09,-1.2867E-12,-530.00,-367.00,-5.30E+02,6.28E-01,5.19E-05
111-78-4,15CC8==,C8H12        ,MISC,(CH2)4 (CH=CH)2 ,108.1800003,0.8876,423.269,645.000,39.000,0.366,0.2858,0.0584824,0.00367856,2.86257E-06,-5.01088E-09,1.74149E-12,102.00,245.00,1.02E+02,4.66E-01,4.89E-05
111-82-0,M-Laureate,C13H26O2     ,Misc,CH3 (CH2)10 CH3COO ,214.3470001,1.0482,539.309,712.000,20.250,0.758,0.7560,-0.139593,0.0068706,-5.38416E-06,2.36536E-09,-4.46291E-13,-612.30,-240.00,-6.12E+02,1.22E+00,9.86E-05
111-84-2,n-Nonane,C9H20        ,PN,(CH3)2 (CH2)7 ,128.2590027,0.7209,423.967,594.598,23.001,0.543,0.4455,-0.0652895,0.00680576,-3.76035E-06,8.0382E-10,-1.1188E-22,-229.19,25.00,-2.34E+02,8.45E-01,6.85E-05
111-86-4,nOctylAmine,C8H19N       ,Misc,(CH2)6 CH3 CH2NH2 ,129.2460022,0.7866,452.750,627.000,25.800,0.524,0.5680,-0.0943835,0.00696792,-4.7022E-06,1.70258E-09,-2.59841E-13,-174.00,83.03,-1.74E+02,8.38E-01,7.68E-05
111-87-5,1-Octanol,C8H18O       ,Misc,CH3 (CH2)7 OH ,130.2310028,0.8307,468.299,652.500,28.600,0.490,0.5870,0.0474155,0.005845,-2.91751E-06,4.81216E-10,0,-360.09,-116.59,-3.61E+02,7.98E-01,6.32E-05
111-88-6,1Octanethiol,C8H18S       ,MISC,CH2SH CH3 (CH2)6 ,146.2890015,0.8474,472.299,665.000,25.000,0.538,0.4620,0.08976,0.0052508,-2.65137E-06,5.22208E-10,5.72145E-21,-170.10,44.64,-1.64E+02,6.62E-01,1.24E-04
111-90-0,2(2EyEy)C2ol,C6H14O3      ,Misc,CH3 (CH2)3 OH (CH2O)2 ,134.1750031,0.9943,475.148,632.000,31.400,0.420,0.9009,-0.13713,0.00618798,-4.97271E-06,2.26272E-09,-4.65812E-13,-565.00,-345.00,-5.65E+02,7.20E-01,5.90E-05
111-92-2,diButylamine,C8H19N       ,Misc,(CH3)2 (CH2)5 CH2NH ,129.2460022,0.7651,432.799,607.500,26.300,0.524,0.5800,0.0755925,0.0062565,-3.40032E-06,7.16056E-10,0,-154.98,104.00,-1.55E+02,8.52E-01,7.28E-05
111-96-6,diEGlydiMEth,C6H14O3      ,Misc,(CH2)3 CH3O CH2O ,134.1750031,0.9525,432.910,602.000,28.600,0.422,0.5748,0.0883247,0.0049375,-2.59685E-06,4.5922E-10,0,-510.99,-286.50,-5.11E+02,1.14E+00,5.86E-05
1119-85-3,14DiCyan2C4=,C6H6N2       ,Misc,CH=CH (CH2CN)2 ,106.125,0.9573,547.000,755.000,29.500,0.426,0.6668,0.419489,0.00226574,2.29056E-06,-4.58892E-09,1.96487E-12,261.00,328.00,2.61E+02,2.18E-01,2.14E-05
1120-21-4,n-C11,C11H24       ,PN,(CH3)2 (CH2)9 ,156.3130035,0.7435,469.040,638.299,19.649,0.660,0.5350,-0.0537062,0.00674288,-3.70986E-06,7.91344E-10,-1.04389E-22,-270.49,41.25,-2.76E+02,1.04E+00,8.04E-05
1120-28-1,M-Arachidate,C21H42O2     ,Misc,CH3 (CH2)18 CH3COO ,326.5589905,0.8208,579.419,753.185,14.776,0.995,0.6629,0.028196825,0.005953057,-3.1357E-06,5.56097E-10,0,-794.05,,-7.93E+02,2.00E+00,1.58E-04
1120-36-1,1-Tetradecen,C14H28       ,N,CH3 (CH2)11 CH2=CH ,196.378006,0.7748,524.299,689.000,15.500,0.707,0.6752,0.127799,0.00562078,-1.88258E-06,-1.6906E-10,-6.44745E-22,-206.70,154.77,-2.13E+02,1.20E+00,9.16E-05
112-05-0,nC9oicAcid,C9H18O2      ,Misc,CH3 (CH2)7 COOH ,158.2400055,0.9102,528.750,712.000,23.500,0.547,0.7274,0.0772698,0.0055369,-3.3303E-06,1.04175E-09,-2.06375E-13,-577.30,-315.00,-5.77E+02,8.51E-01,6.90E-05
112-06-1,nC7Acetate,C9H18O2      ,Misc,CH3COO (CH2)6 CH3 ,158.2400055,0.8753,465.549,637.000,23.300,0.547,0.5953,-0.396191,0.00786804,-7.3398E-06,3.77485E-09,-7.88895E-13,-549.00,,-5.49E+02,8.39E-01,7.06E-05
1120-62-3,3Mcycpentene,C6H10        ,OD,CH=CH CH3 (CH2)2 CH ,82.15000153,0.7593,343.200,535.700,40.200,0.299,0.2210,-0.526209,0.00695918,-3.99816E-06,8.47228E-10,6.5132E-21,8.65,114.98,5.79E+00,3.52E-01,4.31E-05
112-07-2,C2=GC4EthrAc,C8H16O3      ,Misc,CH2O CH3COO CH3 (CH2)4 ,160.2129974,0.9475,465.150,641.200,24.800,0.549,0.5598,-0.32932,0.0072116,-6.7161E-06,3.43656E-09,-7.2615E-13,-652.00,,-6.52E+02,8.07E-01,6.30E-05
112-14-1,nC8C2oate,C10H20O2     ,Misc,CH3 (CH2)7 CH3COO ,172.2680054,0.8731,484.450,652.000,21.500,0.600,0.6514,-0.380863,0.0078412,-7.17462E-06,3.62608E-09,-7.4812E-13,-569.70,,-5.70E+02,9.34E-01,7.79E-05
112-15-2,DiEGEEther,C8H16O4      ,Misc,(CH2)3 CH3 CH3COO (CH2O)2 ,176.2120056,1.0160,490.549,660.000,24.200,0.565,0.7145,-0.337141,0.00705958,-6.81264E-06,3.61921E-09,-8.06945E-13,-776.00,-510.78,-7.76E+02,8.72E-01,6.26E-05
112-17-4,nDecAcetate,C12H24O2     ,Misc,CH3COO CH3 (CH2)9 ,200.3200073,0.8699,517.150,678.000,18.600,0.705,0.7502,-0.356472,0.00779782,-6.91086E-06,3.38841E-09,-6.82865E-13,-611.10,,-6.11E+02,1.12E+00,9.24E-05
112-20-9,nNonylAmine,C9H21N       ,Misc,(CH2)7 CH3 CH2NH2 ,143.2720032,0.7930,475.350,648.000,23.600,0.577,0.6136,-0.0989074,0.00700868,-4.79562E-06,1.79918E-09,-2.90337E-13,-195.00,91.04,-1.94E+02,9.33E-01,8.43E-05
112-23-2,n-C7_Formate,C8H16O2      ,Misc,(CH2)6 CH3 HCOO ,144.2140045,0.8834,451.250,628.000,25.400,0.494,0.5337,-0.33498,0.0075452,-0.000006951,3.57388E-09,-7.5745E-13,-489.80,,-4.90E+02,7.51E-01,6.23E-05
112-24-3,TriC2=TetraA,C6H18N4      ,Misc,(CH2)2 (CH2NH2)2 (CH2NH)2 ,146.2350006,0.9863,539.650,718.000,31.700,0.482,0.9735,-0.20583,0.00711494,-5.92491E-06,2.79963E-09,-5.70535E-13,3.35,310.00,2.66E+00,1.01E+00,6.98E-05
112-25-4,2-C6oxyC2ol,C8H18O2      ,Misc,CH2O OH CH3 (CH2)6 ,146.2299957,0.8932,481.450,633.000,26.200,0.505,0.9004,-0.094373,0.006356,-4.4091E-06,1.61932E-09,-2.5877E-13,-484.20,,-4.84E+02,8.47E-01,7.39E-05
112-27-6,TEGlycol,C6H14O4      ,Misc,(CH2)4 (OH)2 (CH2O)2 ,150.1690063,1.1295,550.400,727.000,14.186,0.446,0.6900,-0.072216,0.0053558,0,0,0,-725.08,-486.52,-7.40E+02,8.78E-01,-7.08E-05
1123-00-8,CC5-AceticAc,C7H12O2      ,Misc,COOH (CH2)5 CH ,128.1710052,1.0250,501.150,708.000,36.200,0.410,0.6144,-0.50095,0.0071854,-6.1518E-06,2.85764E-09,-5.5845E-13,-476.10,,-4.76E+02,5.93E-01,5.35E-05
112-30-1,1-Decanol,C10H22O      ,Misc,CH3 (CH2)9 OH ,158.2850037,0.8327,506.100,687.000,22.200,0.600,0.6133,0.0921096,0.005656,-2.47878E-06,2.18164E-10,0,-401.89,-98.45,-4.09E+02,9.92E-01,7.53E-05
112-31-2,n-Decanal,C10H20O      ,Misc,CH3 (CH2)8 CHO ,156.2680054,0.8285,488.148,657.000,21.500,0.580,0.6416,0.84322,0.00286414,3.04026E-07,-6.11392E-10,0,-325.88,-66.53,-3.36E+02,8.81E-01,6.54E-05
112-32-3,nC8Formate,C9H18O2      ,Misc,HCOO (CH2)7 CH3 ,158.2400055,0.8789,471.950,645.000,23.300,0.547,0.5871,-0.269087,0.00725824,-6.28737E-06,3.05048E-09,-6.24505E-13,-510.60,-252.10,-5.10E+02,8.46E-01,6.96E-05
112-34-5,B-Carbitol,C8H18O3      ,Misc,OH (CH2)5 (CH2O)2 CH3 ,162.2290039,0.9611,504.148,654.000,25.600,0.526,0.9315,-0.0902755,0.0060502,-4.24509E-06,1.53775E-09,-2.39828E-13,-606.00,-328.00,-6.06E+02,9.13E-01,7.36E-05
112-36-7,DEGDiEEther,C8H18O3      ,Misc,(CH2)3 (CH3)2 (CH2O)3 ,162.2290039,0.9132,462.148,624.000,23.700,0.558,0.6807,-0.223164,0.0067379,-5.50995E-06,2.55047E-09,-5.31255E-13,-580.00,-299.00,-5.80E+02,9.21E-01,7.31E-05
112-37-8,UnC10oicAcid,C11H22O2     ,Misc,(CH2)9 CH3 COOH ,186.2940063,0.9012,557.350,732.000,20.800,0.653,0.8346,-0.072699,0.0064334,-4.6854E-06,1.84824E-09,-3.16965E-13,-614.60,,-6.14E+02,1.04E+00,8.34E-05
1123-85-9,2Ph1Propanol,C9H12O       ,Misc,OH ACCH (ACH)5 CH3 CH2 ,136.1940002,1.0096,497.650,685.000,34.900,0.440,0.7643,-0.40382,0.0067968,-5.4948E-06,2.31652E-09,-4.0542E-13,-148.60,,-1.48E+02,4.80E-01,5.22E-05
112-39-0,M-Palmitate,C17H34O2     ,Misc,CH3 (CH2)14 CH3COO ,270.45401,0.8808,599.299,763.000,16.500,0.837,0.9240,0.047490447,0.005783008,-2.98165E-06,4.95462E-10,0,-711.49,,-7.11E+02,1.61E+00,1.29E-04
112-40-3,n-C12,C12H26       ,PN,(CH3)2 (CH2)10 ,170.3390045,0.7518,489.428,658.299,18.299,0.713,0.5620,-0.0547613,0.00674536,-3.72603E-06,7.97804E-10,-1.7051E-22,-291.09,49.53,-2.97E+02,1.14E+00,8.65E-05
112-41-4,1-Dodecene,C12H24       ,N,CH3 (CH2)9 CH2=CH ,168.3240051,0.7629,486.500,657.000,18.500,0.595,0.5836,0.15992,0.0054289,-1.54997E-06,-3.38631E-10,-1.89052E-22,-165.50,138.00,-1.71E+02,1.01E+00,7.97E-05
112-42-5,1-Undecanol,C11H24O      ,Misc,CH3 (CH2)10 OH ,172.3110046,0.8377,518.150,704.000,20.800,0.643,0.5872,-0.0191637,0.00644204,-3.75342E-06,8.12124E-10,0,-422.20,0.00,-4.28E+02,1.09E+00,8.12E-05
112-44-7,1Undecanal,C11H22O      ,Misc,CH3 (CH2)9 CHO ,170.2940063,0.8311,506.148,672.000,20.000,0.632,0.6966,0.00465119,0.00624846,-4.02246E-06,1.3517E-09,-1.939E-13,-351.00,,-3.50E+02,9.54E-01,8.60E-05
'112-44-7,. 1-UNDECANAL,C11H220,MISC,,170.295,0.8230,506.150,672.000,20.000,0.632,0.6970,0.012343287,0.006211574,-3.96107E-06,1.30873E-09,-1.83165E-13,-351.00,-58.20,-3.56E-01,9.75E-01,7.31E-08
112-49-2,TEGDiMEther,C8H18O4      ,Misc,(CH2)4 (CH2O)2 (CH3O)2 ,178.2290039,0.9917,489.148,651.000,23.100,0.548,0.7915,-0.103356,0.00595752,-4.5282E-06,1.89986E-09,-3.65438E-13,-676.00,,-6.76E+02,9.88E-01,7.26E-05
1-12-49-2,TRIETHYLENE GLYCOL DIMETHYL ETHER,C8H1804,MISC,,178.229,0.9800,489.150,651.000,23.100,0.548,0.7920,-0.088913701,0.005831823,-4.20274E-06,1.57746E-09,-2.57618E-13,-676.00,-375.00,-6.81E-01,1.01E+00,6.09E-08
112-50-5,222EEEC2ol,C8H18O4      ,Misc,(CH2O)3 OH CH3 (CH2)4 ,178.2290039,1.0321,529.150,679.000,24.800,0.567,1.0589,-0.26686,0.007028,-6.9561E-06,4.156E-09,-1.10715E-12,-729.10,,-7.29E+02,9.74E-01,7.31E-05
112-51-6,PentdiSulphd,C10H22S2     ,MISC,(CH2S)2 (CH2)6 (CH3)2 ,206.3990021,0.9261,537.098,726.900,21.800,0.703,0.6140,0.0868313,0.00499462,-2.84282E-06,6.49548E-10,-2.2855E-21,-199.62,70.67,-1.91E+02,8.28E-01,1.64E-04
112-53-8,1-Dodecanol,C12H26O      ,Misc,CH3 (CH2)11 OH ,186.3390045,0.8320,533.098,679.000,19.100,0.718,0.9542,0.0495329,0.00592324,-2.86652E-06,4.17728E-10,0,-443.10,-87.13,-4.49E+02,1.19E+00,8.72E-05
112-54-9,n-Dodecanal,C12H24O      ,Misc,CH3 (CH2)10 CHO ,184.3220062,0.8341,523.150,685.000,18.600,0.685,0.7538,0.0517363,0.00594878,-3.26823E-06,6.83656E-10,0,-374.34,-52.60,-3.74E+02,1.06E+00,9.28E-05
112-55-0,1Dodecathiol,C12H26S      ,MISC,CH2SH CH3 (CH2)10 ,202.3990021,0.8469,547.799,729.799,18.800,0.762,0.6360,0.0407163,0.00570454,-3.04641E-06,6.41636E-10,7.68275E-21,-252.66,78.24,-2.45E+02,1.03E+00,1.65E-04
112-57-2,(C2=)4PAmine,C8H23N5      ,Misc,(CH2)3 (CH2NH2)2 (CH2NH)3 ,189.3040009,1.0021,606.150,774.000,25.300,0.636,1.2365,-0.289771,0.0074844,-6.43065E-06,3.08235E-09,-6.30475E-13,12.60,413.08,1.14E+01,1.32E+00,8.63E-05
112-58-3,diHX-Ether,C12H26O      ,Misc,(CH3)2 (CH2)9 CH2O ,186.3379974,1.2249,499.600,657.000,18.100,0.720,0.7000,0.1172,0.00374978,-1.9343E-06,5.86388E-10,0,-415.50,-54.70,-4.04E+02,1.10E+00,2.38E-04
112-59-4,22C6xC2xC2ol,C10H22O3     ,Misc,(CH2O)2 OH CH3 (CH2)7 ,190.2830048,0.9361,532.250,684.000,24.100,0.631,1.1110,-0.11102,0.0063182,-4.5435E-06,1.73916E-09,-2.90855E-13,-651.50,,-6.51E+02,1.10E+00,8.80E-05
112-60-7,TtrC2=Glycol,C8H18O5      ,MISC,(OH)2 (CH2)5 (CH2O)3 ,194.227005,1.1313,581.000,722.000,25.800,0.564,1.5783,0.07802,0.00494758,-3.22134E-06,1.04815E-09,-1.53107E-13,-882.20,-559.41,-8.82E+02,1.02E+00,7.42E-05
112-61-8,M-Stearate,C19H38O2     ,Misc,CH3 (CH2)16 CH3COO ,298.5069885,0.8506,625.630,785.000,15.000,0.929,0.9940,0.036937034,0.005876023,-3.06591E-06,5.28629E-10,0,-752.77,,-7.52E+02,1.80E+00,1.44E-04
112-62-9,M-Oleate,C19H36O2     ,Misc,CH3 (CH2)14 CH=CH CH3COO ,296.5,0.8777,617.000,764.000,12.800,1.060,1.0490,-0.152999,0.00686768,-5.14122E-06,2.09111E-09,-3.66157E-13,-626.00,-117.00,-6.25E+02,1.67E+00,1.35E-04
112-63-0,M-Linoleate,C19H34O2     ,Misc,CH3 (CH2)12 (CH=CH)2 CH3COO ,294.4590149,0.8894,551.320,749.825,21.107,0.714,0.5694,-0.058877383,0.006092305,-3.67703E-06,8.57794E-10,0,-518.33,,-5.18E+02,1.56E+00,1.29E-04
1126-78-9,n-B-Aniline,C10H15N      ,Misc,CH3 (CH2)2 (ACH)5 AC CH2NH ,149.2350006,0.9329,513.900,720.000,28.300,0.535,0.5416,-0.228438,0.0061312,-3.72801E-06,8.62952E-10,0,40.27,,4.05E+01,6.34E-01,6.22E-05
112-70-9,1-Tridecanol,C13H28O      ,Misc,CH3 (CH2)12 OH ,200.3650055,0.8295,547.150,720.000,18.100,0.749,0.6272,-0.0265635,0.00652494,-3.83583E-06,8.35284E-10,0,-463.46,-78.28,-4.70E+02,1.28E+00,9.33E-05
112-72-1,1-Ttrdecanol,C14H30O      ,Misc,CH3 (CH2)13 OH ,214.3910065,0.8240,560.150,740.000,17.000,0.802,0.6765,-0.02963,0.00655532,-3.86175E-06,8.40692E-10,0,-484.08,-69.87,-4.92E+02,1.38E+00,9.92E-05
112-73-2,2E=G2B-Ether,C12H26O3     ,Misc,(CH2)7 (CH3)2 (CH2O)3 ,218.3370056,0.8898,529.150,680.000,17.600,0.803,0.8455,-0.18371,0.0067572,-5.1042E-06,2.10076E-09,-3.7956E-13,-662.00,-265.00,-6.62E+02,1.30E+00,1.02E-04
1127-76-0,1ENaphthalen,C12H12       ,AMR,(AC)2 (ACH)7 ACCH2 CH3 ,156.2290039,1.0122,531.480,776.000,33.200,0.520,0.4073,-0.408359,0.00665042,-4.87329E-06,1.41054E-09,5.5868E-21,96.65,225.98,9.36E+01,4.31E-01,3.83E-05
112-80-1,OleicAcid,C18H34O2     ,Misc,CH3 (CH2)14 CH=CH COOH ,282.4670105,0.8943,632.000,770.000,13.900,1.000,1.1782,-0.204165,0.007086,-5.56782E-06,2.41608E-09,-4.47422E-13,-672.00,-189.69,-6.72E+02,1.58E+00,1.28E-04
112-88-9,1-Octadecene,C18H36       ,N,CH3 (CH2)15 CH2=CH ,252.4850006,0.7905,587.000,742.900,12.450,0.932,0.8552,0.0850148,0.00587678,-2.32607E-06,5.70312E-11,-2.18904E-22,-289.10,188.32,-2.98E+02,1.59E+00,1.16E-04
112-92-5,1-Octdecanol,C18H38O      ,Misc,CH3 (CH2)17 OH ,270.5010071,0.8117,607.000,777.000,13.900,1.010,1.1590,-0.0321984,0.00646634,-3.65517E-06,7.9792E-10,0,-566.88,-36.19,-5.76E+02,1.77E+00,1.24E-04
112-95-8,n-C20,C20H42       ,PN,(CH3)2 (CH2)18 ,282.5400085,0.7914,616.929,768.000,11.600,1.190,0.9069,-0.07921,0.0068627,-3.9531E-06,8.94724E-10,-1.36213E-22,-456.08,115.77,-4.66E+02,1.91E+00,1.35E-04