CAS Number,Name,Formula,Type,UNIFAC,MW,SG6060,TB,Tc,Pc,Vc,OMEGA,CPA,CPB,CPC,CPD,CPE,HFORM25,GFORM25,GIBBSA,GIBBSB,GIBBSC
642-32-0,1234-E-BZ,C14H22       ,A,(ACH)2 (ACCH2)4 (CH3)4 ,190.3300018,0.8915,524.200,708.200,19.300,0.711,0.5620,-0.036484,0.00629748,-3.96939E-06,9.99196E-10,7.68595E-21,-123.26,155.94,-1.28E+02,9.31E-01,6.50E-05
6443-92-1,cis2C7=,C7H14        ,N,(CH3)2 CH=CH (CH2)3 ,98.1882019,0.7118,371.558,549.000,28.400,0.424,0.2942,0.38489,0.003514,2.28612E-06,-3.98501E-09,1.3623E-12,-69.20,89.20,-6.82E+01,5.09E-01,6.35E-05
644-49-5,n-P-i-C4oate,C7H14O2      ,ES,(CH3)3 (CH2)2 CH COO ,130.1860046,0.8848,408.600,581.000,28.300,0.460,0.4473,0.10405,0.00505288,-2.46522E-06,2.90696E-10,0,-510.37,-314.00,-5.10E+02,6.72E-01,5.55E-05
645-49-8,c-Stilbene,C14H12       ,AD,(ACH)10 (AC)2 CH=CH ,180.2480011,1.0185,535.000,757.000,27.300,0.584,0.4708,-0.543915,0.006961,-6.09345E-06,2.8242E-09,-5.37845E-13,245.18,367.58,2.46E+02,3.92E-01,5.43E-05
646-04-8,tr2-Pentene,C5H10        ,N,(CH3)2 CH2 CH=CH ,70.13500214,0.6529,309.493,475.371,36.541,0.302,0.2373,0.26349,0.00461978,-5.21718E-07,-1.4269E-09,5.7618E-13,-31.78,69.91,-3.37E+01,3.35E-01,3.91E-05
646-05-9,1Pentene3yne,C5H6         ,OC,CH2=CH C-=C CH3 ,66.1026001,0.7464,332.398,520.000,44.000,0.256,0.2523,0.126571,0.00522408,-3.73545E-06,1.48324E-09,-2.64187E-13,249.00,281.00,2.50E+02,9.72E-02,2.49E-05
646-30-0,C19oicAcic,C19H38O2     ,Misc,CH3 (CH2)17 COOH ,298.5100098,0.8489,659.150,810.000,13.000,1.080,1.0700,-0.0876744,0.00666788,-4.6086E-06,1.66871E-09,-2.56911E-13,-785.30,-236.00,-7.85E+02,1.80E+00,1.42E-04
646-31-1,n-C24,C24H50       ,PN,(CH3)2 (CH2)22 ,338.6390076,0.8021,664.429,804.000,9.800,1.411,1.0710,0.303499,0.00572898,-2.12525E-06,0,0,-540.00,,-5.39E+02,2.30E+00,-5.02E-07
64-67-5,DESulphate,C4H10O4S     ,Misc,,154.1860046,1.1819,483.000,749.000,64.800,0.398,0.3911,-0.123771,0.00448022,-4.1484E-06,2.03939E-09,-4.12271E-13,-756.30,-547.00,-7.55E+02,6.74E-01,7.32E-05
65-85-0,BZoicAcid,C7H6O2       ,Misc,(ACH)5 AC COOH ,122.1240005,1.0870,523.000,752.000,45.600,0.341,0.6200,-0.41993,0.00515638,-3.47163E-06,8.70168E-10,0,-290.39,-210.41,-2.92E+02,2.62E-01,3.50E-05
659-70-1,IPentIsoVale,C10H20O2     ,Misc,CH2COO (CH)2 (CH3)4 (CH2)2 ,172.2680054,0.8612,467.148,637.000,22.000,0.600,0.5785,-0.378923,0.00787648,-7.22067E-06,3.6804E-09,-7.89355E-13,-583.00,-291.07,-5.83E+02,9.57E-01,7.60E-05
662-01-1,13-ClHexaFC3,C3Cl2F6      ,Misc,(CClF2)2 CF2 ,220.9290009,1.5869,309.250,449.000,25.700,0.369,0.3286,-0.011991,0.0035382,-4.6134E-06,2.87096E-09,-6.955E-13,-1295.00,,,4.39E-01,6.07E-06
66-25-1,n-Hexanal,C6H12O       ,KET,CH3 (CH2)4 CHO ,100.1610031,0.8178,401.450,577.000,31.100,0.369,0.4390,0.409699,0.00416068,-1.24755E-06,-4.65388E-11,0,-247.30,-100.12,-2.51E+02,4.93E-01,4.16E-05
66325-11-9,1C61234THyNa,C16H24       ,ASC,CH (CH2)8 CH3 (AC)2 (ACH)4 ,216.3670044,0.9251,578.150,779.000,18.900,0.771,0.5888,-0.59064,0.00814868,-6.83367E-06,3.0627E-09,-5.72395E-13,-102.90,,-1.03E+02,1.03E+00,9.87E-05
6742-54-7,n-Undecyl-BZ,C17H28       ,A,(ACH)5 ACCH2 (CH2)9 CH3 ,232.3890076,0.8585,586.400,764.000,16.600,0.910,0.7220,-0.199947,0.00662592,-4.01103E-06,9.31968E-10,6.27455E-20,-158.30,203.43,-1.65E+02,1.21E+00,9.24E-05
674-76-0,4Mtr2pentene,C6H12        ,N,CH=CH (CH3)3 CH ,84.16000366,0.6741,331.700,492.000,30.300,0.360,0.2900,0.149786,0.0061214,-3.57219E-06,8.70792E-10,-1.41492E-21,-54.35,79.62,-5.42E+01,4.36E-01,4.14E-05
674-82-8,Diketene,C4H4O2       ,Misc,(CH2CO)2 ,84.07460022,1.0607,399.200,616.000,59.600,0.234,0.3821,0.1766,0.0034204,-1.55649E-06,-6.402E-11,1.64285E-13,-190.20,-136.00,-1.90E+02,1.76E-01,1.71E-05
67-56-1,Methanol,CH4O         ,OL,CH3OH ,32.04190063,0.7965,337.799,512.598,73.765,0.127,0.5570,0.6602,0.0022144,8.07768E-07,-8.90424E-10,0,-201.29,-162.24,-2.02E+02,1.25E-01,2.03E-05
6758-23-5,1-CYCLOPENTYLUNDECANE,C16H32,MISC,,224.429,0.8100,568.760,743.300,15.090,0.873,0.6380,-0.333914066,0.007456256,-6.67026E-07,1.21281E-09,0,-312.54,120.25,-3.21E-01,1.44E+00,1.09E-07
67-63-0,2-Propanol,C3H8O        ,OL,(CH3)2 CH OH ,60.09600067,0.7857,355.398,508.299,47.600,0.220,0.6650,0.539669,0.00313862,1.06666E-06,-1.54205E-09,0,-272.59,-173.32,-2.75E+02,3.29E-01,2.92E-05
67-64-1,Acetone,C3H6O        ,ALD,CH3 CH3CO ,58.08000183,0.7907,329.200,508.100,47.000,0.209,0.3040,0.108548,0.00448984,-2.15874E-06,3.5112E-10,0,-217.69,-152.60,-2.19E+02,2.12E-01,2.66E-05
6765-39-5,1-Heptadecen,C17H34       ,N,CH3 (CH2)14 CH2=CH ,238.4400024,0.7875,573.500,730.500,13.340,0.876,0.8300,0.0938346,0.0058245,-2.23493E-06,1.04846E-11,-1.86814E-23,-268.30,311.04,-2.77E+02,1.49E+00,1.10E-04
67-66-3,Chloroform,CHCl3        ,HAL,CHCl3 ,119.375,1.4996,334.299,536.400,53.700,0.239,0.2180,0.201037,0.001585716,-1.54215E-06,5.57624E-10,7.27795E-24,-102.55,-70.09,-1.02E+02,1.11E-01,8.63E-07
67-68-5,diMSulfoxide,C2H6OS       ,MISC,DMSO ,78.13500214,1.1065,462.148,729.000,56.500,0.227,0.2806,0.359249,0.00311154,-1.45311E-06,3.48596E-11,1.21098E-13,-150.46,0.00,-1.50E+02,-3.48E-01,2.56E-05
67-72-1,perCl-C2,C2Cl6        ,Misc,(CCl3)2 ,236.7389984,2.0918,459.200,704.400,39.200,0.419,0.2750,0.221064,0.001286188,-1.41377E-06,5.43928E-10,2.84159E-21,-141.42,-56.82,-1.42E+02,2.92E-01,-1.83E-05
677-21-4,F3-C3=,C3H3F3       ,Misc,CH2=CH CF3 ,96.0510025,0.8648,243.000,376.200,37.000,0.211,0.2380,0.036942,0.00495064,-3.71718E-06,9.88604E-10,0,-576.90,,-5.80E+02,2.11E-01,-2.53E-05
678-26-2,perF-C5,C5F12        ,Misc,(CF3)2 (CF2)3 ,288.0310059,1.5235,302.398,420.600,20.500,0.473,0.4320,-0.172319,0.0038393,-3.24315E-06,9.11988E-10,0,-2543.60,-2351.67,,7.32E-01,-2.55E-05
6785-23-5,n-Undecylcyclopentane,,MISC,,224.452,,,,,,,FALSE,FALSE,FALSE,FALSE,FALSE,,,,,
6795-87-5,MSBE,C5H12O       ,Misc,(CH3)3 CH CH2O ,88.15000153,0.7475,333.148,500.084,34.319,0.327,0.3082,0.251402,0.00478234,-1.59275E-06,-7.94096E-11,2.02911E-20,-284.03,-116.80,-2.84E+02,5.63E-01,0.00E+00
680-31-9,HEXAMETHYL PHOSPHORAMIDE ,C6H18N30P,MISC,,179.202,1.0200,506.150,0.000,0.000,0.000,0.0000,0,0,0,0,0,-467.00,0.00,,,
68-11-1,ThioGlycAcid,C2H4O2S      ,Misc,COOH CH2SH ,92.11840057,1.3311,493.000,733.000,61.000,0.239,0.5598,0.151572,0.00349616,-0.000003255,1.82824E-09,-4.5091E-13,-394.00,,-3.94E+02,1.63E-01,1.74E-05
68-12-2,DMF,C3H7NO       ,MISC,DMF-1 ,73.09500122,0.9543,426.148,647.000,44.200,0.267,0.3755,0.139698,0.00425884,-1.02327E-06,-1.12445E-09,5.30425E-13,-191.50,-88.41,-1.92E+02,9.11E-01,2.85E-05
6812-38-0,n-HexadecyIcyclohexane,,MISC,,308.58,,,,,,,FALSE,FALSE,FALSE,FALSE,FALSE,,,,,
6812-39-1,n-Hexadecylcyclopentane,C21H42,MISC,,294.563,0.0000,640.160,803.460,10.900,1.145,0.7330,-0.26472096,0.007293516,-4.26564E-06,9.48999E-10,0,-439.91,148.95,-4.52E-01,1.97E+00,1.28E-07
684-16-2,perF-C3one,C3F6O        ,Misc,,166.0200043,1.3698,245.699,357.100,28.300,0.329,0.3650,-0.0512085,0.0032924,-2.69532E-06,7.45184E-10,0,-32.77,-1360.00,-3.28E+01,-3.28E+01,-3.28E+01
6863-58-7,disecBEther,C8H18O       ,Misc,(CH3)4 CH-O CH (CH2)2 ,130.2290039,0.7557,394.200,562.000,25.500,0.489,0.4100,0.133146,0.0055395,-2.58204E-06,3.73E-10,2.84556E-21,-351.23,-104.06,-3.65E+02,8.54E-01,6.28E-05
6876-23-9,1-tr2-MCC6,C8H16        ,N,(CH3)2 (CH2)4 (CH)2 ,112.2080002,0.7792,396.578,595.927,29.646,0.462,0.3304,-0.61026,0.00813006,-4.77216E-06,1.05244E-09,-9.2398E-22,-180.09,34.48,-1.86E+02,7.22E-01,4.97E-05
6881-94-3,DiC2=GC3Ethr,C7H16O3      ,Misc,(CH2)4 CH3 OH (CH2O)2 ,148.2019958,0.9730,487.990,679.800,30.020,0.489,0.6114,-0.22129,0.006864,-6.3366E-06,3.5618E-09,-9.145E-13,-585.00,,-5.85E+02,8.15E-01,6.62E-05
688-74-4,TrinBBorate,C12H27BO3    ,Misc,,230.1560059,0.8629,506.648,743.150,19.890,0.863,0.1887,-0.293191,0.00667636,-4.27284E-06,1.24171E-09,-1.19911E-13,-1147.00,0.00,-3.28E+01,-3.28E+01,-3.28E+01
689-12-3,i-C3Acrylate,C6H10O2      ,Misc,COO CH2=CH (CH3)2 CH ,114.1439972,0.8967,383.150,560.000,33.100,0.376,0.4051,-0.39104,0.0083226,-9.4794E-06,5.6672E-09,-1.3108E-12,-371.00,,-3.72E+02,4.54E-01,2.62E-05
6892-38-0,1-CYCLOHEXYLHEXADECANE,C22H44,MISC,,308.59,0.0000,652.160,813.420,10.240,1.201,0.7410,-0.248109142,0.007226741,-4.17966E-06,9.10885E-10,0,-460.49,157.36,-4.73E-01,2.07E+00,1.34E-07
689-97-4,VnylAcetlen,C4H4         ,AC,CH2=CH CH-=C ,52.07600021,0.6891,278.250,451.998,48.600,0.218,0.1182,0.129748,0.00545548,-4.3494E-06,1.4327E-09,-5.55635E-22,304.80,305.98,3.05E+02,1.16E-03,1.18E-05
691-37-2,4M-1-pentene,C6H12        ,N,CH2=CH CH2 (CH3)2 CH ,84.16100311,0.6693,327.010,496.000,32.200,0.345,0.2389,0.356868,0.00374962,1.66173E-06,-3.45142E-09,1.20222E-12,-51.20,85.69,-4.67E+01,4.43E-01,4.69E-05
691-38-3,4Mci2pentene,C6H12        ,N,CH=CH (CH3)3 CH ,84.16000366,0.6746,329.600,490.000,30.300,0.360,0.2900,-0.121292,0.0068442,-4.2747E-06,1.105E-09,7.35355E-21,-50.33,82.13,-5.29E+01,4.39E-01,4.28E-05
692-45-5,VinylFormate,C3H4O2       ,Misc,CH2=CH HCOO ,72.06400299,0.9687,319.600,475.000,57.700,0.210,0.5500,0.386158,0.0025535,-4.94316E-07,-3.24224E-09,0,-261.99,-209.00,-2.56E+02,3.65E-01,6.02E-05
693-02-7,1-Hexyne,C6H10        ,OD,CH-=C (CH2)3 CH3 ,82.15000153,0.7206,344.500,527.000,36.700,0.333,0.2490,0.143651,0.00566304,-0.000003288,7.69248E-10,-5.9177E-21,123.64,218.57,1.22E+02,3.13E-01,3.34E-05
693-65-2,DinPentEther,C10H22O      ,Misc,CH2O (CH3)2 (CH2)7 ,158.2830048,0.7879,459.898,622.000,20.900,0.593,0.6012,-0.117999,0.00685018,-4.63869E-06,1.68376E-09,-2.64483E-13,-374.00,-72.50,-3.73E+02,9.83E-01,8.83E-05
693-89-0,1Mcycpentene,C6H10        ,OD,CH=C (CH2)3 CH3 ,82.15000153,0.7852,347.000,542.000,37.700,0.311,0.2190,-0.358769,0.0060465,-2.48082E-06,5.8534E-11,5.1616E-21,51.87,102.13,-8.31E+00,3.56E-01,4.32E-05
693-95-8,4-M-Thiazole,C4H5NS       ,MISC,,99.15000153,1.1195,405.850,652.500,66.200,0.204,0.2499,0.327786,0.00210478,5.44527E-07,-1.08724E-09,1.19261E-21,68.78,,6.89E+01,2.32E-01,2.48E-05
694-92-8,M-Norbornene,C8H12        ,MISC,CH=C CH3 (CH2)3 (CH)2 ,108.1829987,0.8774,390.150,600.000,34.400,0.377,0.2108,-0.44685,0.0075082,-0.000005907,2.49472E-09,-4.46595E-13,40.95,,4.13E+01,4.69E-01,5.01E-05
696-29-7,i-Pcychexane,C9H18        ,N,(CH3)2 (CH2)5 (CH)2 ,126.2360001,0.8054,427.932,639.817,28.371,0.473,0.2370,-0.115097,0.0057318,-2.12825E-06,0,0,-128.03,49.00,-1.27E+02,8.16E-01,9.08E-05
69-72-7,SalicylAcid,C7H6O3       ,Misc,(ACH)4 AC ACOH COOH ,138.1230011,1.1560,529.000,739.000,51.800,0.326,0.8512,0.0689861,0.0022831,3.3462E-06,-6.69344E-09,3.0554E-12,-494.80,-365.21,-4.95E+02,3.22E-01,3.47E-05
6982-25-8,23-C4diol,C4H10O2      ,Misc,(CH3)2 (CH)2 (OH)2 ,90.12000275,1.0089,455.648,607.630,49.733,0.298,1.1331,0.109118,0.00501318,-2.82506E-06,6.21368E-10,5.81225E-20,-430.35,-339.00,-4.30E+02,4.68E-01,0.00E+00
698-87-3,1Ph2Propanol,C9H12O       ,Misc,CH CH3 (ACH)5 ACCH2 OH ,136.1940002,0.9973,493.150,678.000,34.900,0.440,0.7496,-0.43799,0.0071578,-6.2382E-06,2.89412E-09,-5.5525E-13,-159.00,,-1.59E+02,4.80E-01,4.97E-05
700-12-9,Penta-M-BZ,C11H16       ,A,ACH (ACCH3)5 ,148.25,0.9210,505.100,719.000,24.900,0.544,0.4070,-0.00259696,0.0059081,-3.63081E-06,8.95096E-10,5.77685E-21,-74.47,,-7.76E+01,6.58E-01,4.99E-05
70419-06-6,2-C9ol,C9H20O       ,Misc,(CH3)2 CH (CH2)6 OH ,144.2570038,0.8276,471.648,623.000,24.800,0.538,0.8904,-0.070176,0.00654256,-3.73752E-06,5.49104E-10,2.14815E-13,-398.00,-126.00,-3.98E+02,8.87E-01,7.89E-05
7058-01-7,sec-BCC6,C10H20       ,N,(CH3)2 (CH2)6 (CH)2 ,140.2680054,0.8161,452.449,668.705,26.751,0.530,0.2640,-0.0996168,0.005736,-2.13686E-06,0,0,-148.67,,-1.47E+02,9.11E-01,9.90E-05
706-31-0,159-CC12Tri=,C12H18       ,A,(CH2)6 (CH=CH)3 ,162.2749939,0.8959,514.650,745.000,29.900,0.563,0.4031,-0.51023,0.007706,-6.0252E-06,2.49236E-09,-4.34085E-13,97.07,,9.73E+01,9.79E-01,7.38E-05
7064-93-2,1-DECYNE,C10H18,MISC,,138.252,0.7620,447.160,632.490,24.270,0.558,0.4260,0.048288632,0.00616982,-3.62469E-06,8.52646E-10,0,41.21,252.21,3.75E-02,7.01E-01,5.75E-08
7094-26-0,112-MCC6,C9H18        ,N,(CH3)3 (CH2)4 CH C ,126.2360001,0.8036,418.372,622.872,27.765,0.469,0.2548,-0.1315,0.0057306,-2.12678E-06,0,0,-131.50,,-1.30E+02,8.44E-01,9.27E-05
71-23-8,1-Propanol,C3H8O        ,OL,CH3 (CH2)2 OH ,60.09600067,0.8047,370.299,536.799,51.700,0.219,0.6230,0.041128,0.00553644,-3.08871E-06,7.15308E-10,0,-256.59,-159.81,-2.59E+02,3.12E-01,3.31E-05
71-36-3,1-Butanol,C4H10O       ,OL,CH3 (CH2)3 OH ,74.1230011,0.8146,390.898,563.098,44.200,0.275,0.5930,0.0440869,0.00564304,-3.02664E-06,6.3246E-10,0,-274.89,-150.17,-2.77E+02,4.10E-01,3.91E-05
71-41-0,1-Pentanol,C5H12O       ,OL,CH3 (CH2)4 OH ,88.15000153,0.8203,411.100,588.200,39.100,0.326,0.5790,0.0439194,0.00572694,-2.99564E-06,5.81196E-10,0,-298.89,-142.20,-3.05E+02,5.06E-01,4.52E-05
71-43-2,Benzene,C6H6         ,A,(ACH)6 ,78.11000061,0.8830,353.239,562.098,49.244,0.260,0.2150,-0.513298,0.00649738,-4.6311E-06,1.46002E-09,-1.24102E-13,82.98,129.75,8.15E+01,1.53E-01,2.65E-05
7145-20-2,23M-2-hexene,C8H16        ,N,(CH3)4 (CH2)2 C=C ,112.2080002,0.7447,394.928,577.593,27.358,0.464,0.3222,0.0508969,0.0056918,-2.07488E-06,0,0,-110.81,,-1.10E+02,6.18E-01,6.47E-05
7146-60-3,23-Moctane,C10H22       ,PN,(CH3)4 (CH2)4 (CH)2 ,142.2850037,0.7412,437.488,613.260,21.856,0.567,0.4255,0.161099,0.00568898,-2.07152E-06,0,0,-256.56,26.94,-2.67E+02,9.61E-01,7.32E-05
7154-79-2,2233Mpentane,C9H20        ,PN,(CH3)6 CH2 (C)2 ,128.2590027,0.7599,413.441,610.848,27.358,0.478,0.2793,0.034165,0.00570198,-2.08907E-06,0,0,-237.39,37.60,-2.43E+02,9.10E-01,5.84E-05
7154-80-5,335-Mheptane,C10H22       ,PN,(CH3)5 (CH2)3 CH C ,142.2850037,0.7463,428.846,609.148,23.203,0.537,0.3820,0.1234,0.00569298,-2.07638E-06,0,0,-258.69,32.60,-2.65E+02,9.78E-01,6.93E-05
71-55-6,111-ClC2,C2H3Cl3      ,HAL,CH3 CCl3 ,133.404007,1.3473,347.200,545.000,42.000,0.285,0.2169,0.14604,0.00123351,-7.12965E-07,1.45682E-10,0,-133.00,-76.19,-1.29E+02,1.84E-01,7.70E-05
717-74-8,135-iP-BZ,C15H24       ,A,(CH3)6 (ACH)3 (ACCH)3 ,204.3600006,0.8536,511.148,692.869,18.373,0.749,0.5314,-0.10325,0.00611054,-3.42009E-06,6.92404E-10,3.35337E-20,-155.18,,-1.54E+02,1.03E+00,9.72E-05
7220-26-0,24M-3Ehexane,C10H22       ,PN,(CH3)5 (CH2)2 (CH)3 ,142.2850037,0.7583,433.260,616.260,23.373,0.522,0.3841,0.086182,0.005701,-2.08757E-06,0,0,-246.31,38.24,-2.59E+02,9.71E-01,7.43E-05
7307-55-3,Undecylamine,C11H25N      ,Misc,(CH2)9 CH3 CH2NH2 ,171.326004,0.8022,514.750,682.000,20.200,0.682,0.7043,-0.092328,0.0069592,-4.6137E-06,1.62608E-09,-2.49115E-13,-236.40,,-2.36E+02,1.12E+00,9.86E-05
7309-44-6,ETHYL HEXYL SULFIDE,C8H18S,MISC,,146.29,0.8400,468.160,660.720,25.790,0.538,0.4650,0.082063025,0.005197006,-2.53196E-06,4.66881E-10,0,-166.40,48.83,-1.60E-01,6.63E-01,1.25E-07
7327-60-8,222NitriloTA,C6H6N4       ,Misc,,134.1410065,1.1089,623.000,823.000,26.400,0.485,0.9240,0.148554,0.00447994,-3.93966E-06,1.86068E-09,-3.69837E-13,384.00,,3.83E+02,3.87E-01,1.35E-05
7364-19-4,p-t-B_C2Benz,C12H18       ,A,C AC (CH3)4 ACCH2 (ACH)4 ,162.2749939,0.8686,485.250,684.000,23.800,0.605,0.4347,-0.49072,0.0079038,-6.4836E-06,2.8026E-09,-5.0595E-13,-75.91,,-7.58E+01,7.45E-01,6.92E-05
7372-86-3,2-ETHYL-6-METHYLNAPHTHALENE,C13H14,MISC,,170.254,0.0000,543.160,766.560,27.130,0.578,0.4880,-0.464247536,0.007470015,-6.60366E-06,2.44576E-09,0,61.30,220.20,5.85E-02,5.27E-01,4.63E-08
7415-31-8,13Cltrns2C4=,C4H6Cl2      ,Misc,CH2Cl CH=C Cl CH3 ,124.9970016,1.1644,401.997,618.000,37.800,0.325,0.2418,0.267274,0.0026291,-1.78222E-06,6.29428E-10,-9.60285E-14,-79.00,5.86,-7.69E+01,2.63E-01,4.96E-05
74-31-7,nnDiPHpPHDia,C18H16N2     ,Misc,,260.3380127,1.0200,688.000,906.000,23.100,0.817,0.8761,-0.75275,0.00804114,-7.88886E-06,3.98088E-09,-8.15745E-13,321.00,564.00,3.20E+02,8.02E-01,5.65E-05
7439-15-8,1(4EPh)2PhC2,C16H18       ,AD,(ACCH2)3 (ACH)9 CH3 ,210.3190002,1.0512,565.150,771.000,21.700,0.704,0.5782,-0.47428,0.0071466,-0.000005874,2.52532E-09,-4.5105E-13,90.28,,9.08E+01,6.87E-01,7.41E-05
7439-90-9,Krypton,Kr           ,MISC,,83.80000305,2.4231,119.899,209.399,55.000,0.091,0.0050,0.248209,4.46712E-13,-1.23417E-15,1.42214E-18,-5.8264E-22,0.00,0.00,0.00E+00,0.00E+00,0.00E+00
7439-97-6,Mercury,Hg           ,MISC,,200.5890045,13.5158,629.729,1735.000,1608.000,0.056,-0.1645,0.103624,0,0,0,0,61.32,,6.13E+01,-9.90E-02,0.00E+00
7440-01-9,Neon,Ne           ,Misc,,20.18300056,1.2028,27.100,44.400,27.600,0.042,-0.0290,1.03057,2.86182E-12,-7.93593E-15,9.1772E-18,-3.77246E-21,0.00,0.00,0.00E+00,0.00E+00,0.00E+00
7440-37-1,Argon,Ar           ,GAS,,39.94800186,1.3715,87.299,150.707,48.636,0.075,-0.0040,0.520298,-8.03858E-07,1.29329E-09,0,0,0.00,0.00,0.00E+00,0.00E+00,0.00E+00
7440-44-0,Carbon,,MISC,,12,,,,,,,FALSE,FALSE,FALSE,FALSE,FALSE,,,,,
7440-59-7,Helium,He           ,GAS,,4.002980232,0.1242,4.210,5.190,2.270,0.057,-0.3900,5.1958,0,0,0,0,0.00,0.00,0.00E+00,0.00E+00,0.00E+00
7440-63-3,Xenon,Xe           ,MISC,,131.3000031,2.9554,165.000,289.700,58.200,0.118,0.0080,0.158415,-2.97824E-13,8.26194E-16,-9.5586E-19,3.93111E-22,0.00,0.00,0.00E+00,0.00E+00,0.00E+00
7443-52-9,tr2-M-CC6ol,C7H14O       ,Misc,CH3 (CH2)4 (CH)2 OH ,114.1880035,0.9291,439.648,616.000,37.700,0.414,0.6830,-0.42663,0.00683018,-3.49155E-06,5.14992E-10,0,-352.59,-154.13,-3.53E+02,1.07E+00,5.49E-05
7443-55-2,tr3-M-CC6ol,C7H14O       ,Misc,CH3 (CH2)4 (CH)2 OH ,114.1880035,0.9256,441.148,617.000,37.700,0.414,0.6971,-0.42663,0.00683018,-3.49155E-06,5.14992E-10,0,-329.09,-130.63,-3.30E+02,9.93E-01,5.49E-05
7443-70-1,ci2-M-CC6ol,C7H14O       ,Misc,CH3 (CH2)4 (CH)2 OH ,114.1880035,0.9317,438.148,612.000,37.700,0.414,0.6787,-0.42663,0.00683018,-3.49155E-06,5.14992E-10,0,-326.99,-128.53,-3.28E+02,9.86E-01,5.49E-05
7446-09-5,SO2,SO2          ,MISC,,64.06300354,1.3969,263.200,430.799,78.700,0.122,0.2560,0.37228,0.001045686,-7.74381E-07,2.07294E-10,6.2945E-23,-297.10,,-3.01E+02,1.05E-03,0.00E+00
7446-11-9,SO3,SO3          ,MISC,SO3,80.05780029,1.8819,318.000,491.000,82.100,0.127,0.4810,0.206948,0.001808266,-1.40062E-06,3.63743E-10,5.7989E-22,-396.00,,-4.00E+02,9.67E-02,0.00E+00
7446-70-0,AlCl3,AlCl3        ,MISC,,133.3390045,2.4581,455.850,625.598,26.300,0.262,0.6570,0.512634,0.00017902,-7.56426E-08,1.73322E-18,-4.78315E-22,-584.59,,-3.28E+01,-3.28E+01,-3.28E+01
74-82-8,Methane,CH4          ,PN,CH4 ,16.04290009,0.2997,111.625,190.699,46.407,0.099,0.0115,2.36459,-0.00426494,1.69854E-05,-1.4899E-08,4.30448E-12,-74.90,-50.45,-7.72E+01,8.77E-02,8.59E-06
74-83-9,CH3Br,CH3Br        ,Misc,CH3 Br ,94.93900299,1.6751,276.600,463.997,65.000,0.165,0.1442,0.151991,0.001149158,-5.68881E-07,1.05329E-10,3.01546E-21,-37.68,-28.16,-5.52E+01,8.02E-02,1.12E-05
74-84-0,Ethane,C2H6         ,PN,(CH3)2 ,30.06990051,0.3560,184.550,305.428,48.839,0.148,0.0986,1.1429,-0.0006472,1.27293E-05,-1.35726E-08,4.41048E-12,-84.74,-31.86,-8.58E+01,1.69E-01,2.69E-05
74-85-1,Ethylene,C2H4         ,O,C2H4 ,28.05380058,0.3836,169.399,282.359,50.318,0.129,0.0850,1.137,-0.00048924,8.76285E-06,-8.43044E-09,2.42678E-12,52.33,68.48,5.18E+01,4.93E-02,1.73E-05
74-86-2,Acetylene,C2H2         ,AC,CH-=CH ,26.03800011,0.4174,189.350,308.320,61.391,0.113,0.1873,1.03002,0.00291032,-1.92295E-06,5.42268E-10,-1.66326E-23,226.90,201.30,2.27E+02,-6.17E-02,4.40E-06
74-87-3,Refrig-40,CH3Cl        ,HAL,CH3 Cl ,50.4878006,0.9159,249.100,416.299,67.000,0.139,0.1530,0.420599,0.00122923,6.94044E-07,-1.13818E-09,3.61486E-13,-86.37,-58.42,-8.69E+01,7.57E-02,1.48E-05
74-88-4,CH3I,CH3I         ,Misc,CH3 I ,141.9380035,2.2951,315.700,525.000,65.900,0.184,0.1446,0.0761593,0.000978588,-7.33404E-07,2.45597E-10,-7.7705E-23,13.98,15.65,-2.06E+01,8.33E-02,8.07E-06
74-89-5,Methylamine,CH5N         ,AMINE,CH3NH2 ,31.05800056,0.6681,266.799,420.000,74.200,0.130,0.2920,0.369869,0.00459764,-1.7185E-06,1.53105E-10,0,-23.03,32.73,-2.41E+01,1.82E-01,2.22E-05
74-90-8,HCN,HCN          ,MISC,,27.0258007,0.6946,298.898,456.700,53.700,0.139,0.3880,0.80885,0.00224302,-1.83563E-06,6.7156E-10,-1.87975E-21,130.50,124.68,1.31E+02,-3.56E-02,1.89E-06
74-93-1,M-Mercaptan,CH4S         ,MISC,CH3SH ,48.10680008,0.8640,279.096,469.997,72.346,0.145,0.1550,0.275799,0.0030274,-0.000003195,1.64874E-09,0,-22.99,-9.52,-1.95E+01,1.62E-02,5.27E-05