CAS Number,Name,Formula,Type,UNIFAC,MW,SG6060,TB,Tc,Pc,Vc,OMEGA,CPA,CPB,CPC,CPD,CPE,HFORM25,GFORM25,GIBBSA,GIBBSB,GIBBSC
547-63-7,M-i-C4oate,C5H10O2      ,ACID,(CH3)3 CH COO ,102.1340027,0.8628,365.500,540.799,34.200,0.339,0.3620,0.0425461,0.00447672,-1.92864E-06,1.34599E-09,0,-469.09,-317.00,-4.71E+02,4.94E-01,2.80E-05
547-64-8,Meth_Lactate,C4H8O3       ,Misc,COO OH (CH3)2 CH ,104.1060028,1.0983,417.950,584.000,44.800,0.301,0.7701,-0.29834,0.0068438,-7.3005E-06,4.0892E-09,-8.8525E-13,-594.30,,-5.94E+02,4.29E-01,3.15E-05
551-62-2,1234-F-BZ,C6H2F4       ,Misc,(ACH)2 (ACF)4 ,150.0740051,1.4125,367.500,550.799,37.700,0.313,0.3440,-0.0757348,0.00314512,-1.9991E-06,4.5946E-10,0,-749.49,,-7.49E+02,1.72E-01,2.13E-05
552-30-7,TriMelliticA,C9H4O5       ,Misc,,192.128006,1.4778,663.000,890.000,40.800,0.462,0.9970,-0.37367,0.0048162,-3.9225E-06,1.18756E-09,6.131E-14,-778.00,-636.00,-7.78E+02,4.68E-01,2.87E-05
554-12-1,M-C3oate,C4H8O2       ,ACID,(CH3)2 CH2COO ,88.10700226,0.9207,352.799,530.598,40.000,0.282,0.3500,0.206697,0.00356614,-1.06225E-06,-2.07597E-10,0,-427.49,-311.00,-4.26E+02,3.18E-01,4.60E-05
554-14-3,2MThiophene,C5H6S        ,Misc,CH3 C4H3S ,98.16000366,1.0991,385.700,600.000,48.500,0.275,0.2380,-0.194824,0.0048553,-3.46056E-06,9.86396E-10,7.0241E-21,-83.67,122.93,8.72E+01,1.01E-01,6.19E-05
55505-26-5,i-Decanol,C10H22O      ,Misc,(CH3)2 (CH2)7 CH OH ,158.2830048,0.8287,492.000,644.000,22.800,0.591,0.9130,-0.0737921,0.00654414,-3.88029E-06,9.1378E-10,0,-408.99,-108.00,-4.08E+02,9.88E-01,8.82E-05
555-10-2,bPhellandren,C10H16       ,OC,(CH)2 CH2 (CH3)2 CH2=C CH=CH ,136.2350006,0.8452,447.148,648.000,28.200,0.487,0.3742,-0.795475,0.00969064,-9.28137E-06,4.77532E-09,-1.0091E-12,-5.66,197.00,-6.30E+00,6.65E-01,5.55E-05
55-63-0,NitroGlyceri,C3H5N3O9     ,Misc,,227.0870056,1.6005,523.000,680.000,30.000,0.419,1.1841,-32767,-65534,-98301,-131068,-163835,-270.90,-,-3.28E+01,-3.28E+01,-3.28E+01
556-52-5,23Epoxy1C3ol,C3H6O2       ,Misc,CH2 OH H2COCH ,74.07939911,1.1208,433.650,630.000,59.500,0.216,0.6723,0.1385,0.0037094,-6.3204E-07,-1.3446E-09,6.139E-13,-245.30,,-2.45E+02,2.83E-01,2.85E-05
556-56-9,3-IOD0-1-PROPENE,C3H51,MISC,,167.977,1.8390,375.160,595.810,45.290,0.273,0.2020,0.063901606,0.001807093,-1.36935E-06,4.25356E-10,0,95.81,120.16,6.03E-02,1.61E-01,8.73E-09
556-67-2,OctMCyTrSiln,C8H24O4Si4   ,Misc,(SIO)4 (CH3)8 ,296.6180115,0.9503,448.148,586.500,13.320,0.970,0.5890,-0.0235819,0.00454668,-2.7512E-06,6.18516E-10,-3.25854E-15,-2110.00,0.00,,6.08E+00,0.00E+00
557-17-5,M-P-Ether,C4H10O       ,Misc,CH3 (CH2)2 CH3O ,74.1230011,0.6178,311.700,476.299,37.000,0.274,0.2710,0.28768,0.00457648,-1.52143E-06,-3.85418E-11,0,-237.89,-109.91,-2.40E+02,4.24E-01,3.87E-05
557-91-5,11DiBrEthane,C2H4Br2      ,Misc,(Br)2 CH CH3 ,187.8619995,2.0675,381.150,628.000,60.300,0.276,0.1250,0.098272,0.00141214,-1.21017E-06,5.6084E-10,-1.09135E-13,-40.80,-11.81,-4.09E+01,9.32E-02,1.44E-05
557-98-2,2ClC3=,C3H5Cl       ,Misc,CH2=C Cl CH3 ,76.52510071,0.9085,295.799,478.000,47.100,0.234,0.1525,0.453674,0.00214108,-2.63688E-07,-6.52668E-10,2.54348E-13,-21.00,24.70,-1.95E+01,1.38E-01,3.54E-05
558-17-8,2-IOD0-2-METHYLPROPANE,C4H91,MISC,,184.02,1.5360,373.160,587.900,38.820,0.337,0.1790,-0.028893599,0.002832083,-2.14075E-06,6.54385E-10,0,-73.64,23.64,-1.14E-01,4.17E-01,1.15E-08
558-30-5,12-Ep-2-M-C3,C4H8O        ,Misc,(CH3)2 H2COC ,72.10690308,0.8172,324.650,521.000,46.600,0.242,0.1709,-0.17947,0.0060938,-3.3945E-06,4.8564E-10,1.44495E-13,-130.80,,-1.31E+02,3.39E-01,3.08E-05
558-37-2,33M-1-butene,C6H12        ,N,(CH3)3 C CH2=CH ,84.16190338,0.6577,314.388,490.371,31.509,0.343,0.1379,0.196,0.005622,-1.98116E-06,0,0,-61.55,98.16,-4.59E+01,4.68E-01,4.56E-05
560-21-4,233-Mpentane,C8H18        ,PN,(CH3)5 CH2 CH C ,114.2320023,0.7297,387.914,573.559,28.199,0.455,0.2900,0.094612,0.005681,-2.0603E-06,0,0,-216.59,18.56,-2.21E+02,7.83E-01,6.24E-05
560-23-6,233M1pentene,C8H16        ,N,(CH3)4 CH2 C CH2=C ,112.2080002,0.7389,381.459,569.260,26.861,0.457,0.2335,0.0408199,0.0056876,-2.06927E-06,0,0,-101.56,,-1.01E+02,6.50E-01,6.57E-05
5617-41-4,n-Heptylcyclohexane,C13H26,MISC,,182.348,0.8070,518.060,708.630,19.560,0.697,0.4980,0.910347248,0.007543817,-4.38941E-06,9.50874E-10,0,-275.01,81.67,-2.83E-01,1.20E+00,8.00E-08
5617-42-5,n-Heptylcyclopentane,C12H24,MISC,,168.322,0.8060,497.300,679.000,19.400,0.649,0.5150,-0.411758415,0.007618731,-4.82747E-06,1.27013E-09,0,-230.12,86.61,-2.37E-01,1.06E+00,8.50E-08
56-23-5,CCl4,CCl4         ,HAL,CCl4 ,153.8220062,1.6028,349.898,556.400,45.600,0.276,0.1930,0.26489,0.00133291,-1.47659E-06,5.75252E-10,0,-100.49,-53.53,-1.01E+02,1.46E-01,-8.68E-06
562-49-2,33-Mpentane,C7H16        ,PN,(CH3)4 (CH2)2 C ,100.2050018,0.6970,359.209,536.398,29.455,0.414,0.2870,0.15559,0.00565558,-2.02634E-06,0,0,-201.69,3.50,-2.05E+02,6.79E-01,5.63E-05
563-16-6,33-Mhexane,C8H18        ,PN,(CH3)4 (CH2)3 C ,114.2320023,0.7135,385.122,562.020,26.536,0.443,0.3260,0.15289,0.00566858,-2.04386E-06,0,0,-220.29,13.68,-2.24E+02,7.77E-01,6.23E-05
5634-30-0,n-Dodecylcyclopentane,C17H34,MISC,,238.456,0.8120,584.060,755.170,14.030,0.929,0.6690,-0.317798671,0.007412688,-4.62224E-06,1.18592E-09,0,-335.89,125.94,-3.45E-01,1.54E+00,1.15E-07
563-45-1,3M-1-butene,C5H10        ,N,(CH3)2 CH CH2=CH ,70.13500214,0.6319,293.204,450.371,35.163,0.302,0.2090,0.3098,0.0055456,-0.000005145,1.85266E-09,0,-28.97,76.00,-3.08E+01,3.43E-01,3.24E-05
563-46-2,2M-1-butene,C5H10        ,N,(CH3)2 CH2 CH2=C ,70.13500214,0.6550,304.303,465.371,34.474,0.290,0.2319,-0.034226647,0.006428586,-3.86352E-06,1.1533E-09,-1.34823E-13,-36.34,65.61,-3.84E+01,3.37E-01,3.68E-05
563-78-0,23M-1-butene,C6H12        ,N,(CH3)3 CH CH2=C ,84.16190338,0.6822,328.756,500.928,32.426,0.343,0.2500,0.135,0.005643,-2.00993E-06,0,0,-66.36,79.04,-5.80E+01,4.47E-01,3.77E-05
563-79-1,23M-2-butene,C6H12        ,N,(CH3)4 C=C ,84.16190338,0.7121,346.350,524.260,33.639,0.351,0.2682,0.0584349,0.0056676,-2.04239E-06,0,0,-69.84,75.86,-6.19E+01,4.45E-01,5.01E-05
563-80-4,M-iP-Ketone,C5H10O       ,KET,(CH3)2 CH CH3CO ,86.13400269,0.8150,367.500,553.400,38.500,0.310,0.3500,-0.0338535,0.0057983,-3.40965E-06,7.74292E-10,0,-262.39,-139.30,-2.62E+02,3.96E-01,4.18E-05
564-02-3,223-Mpentane,C8H18        ,PN,(CH3)5 CH2 CH C ,114.2320023,0.7193,382.993,563.500,27.296,0.436,0.2970,0.124498,0.005673,-2.04986E-06,0,0,-220.29,17.97,-2.24E+02,7.89E-01,6.25E-05
56-40-6,Glycine,C2H5NO2      ,Misc,COOH CH2NH2 ,75.06719971,1.4812,699.000,1021.000,67.400,0.234,0.6860,0.18233,0.004031,-2.88798E-06,1.08488E-09,-1.8537E-13,-392.10,,-3.92E+02,3.02E-01,2.21E-05
565-59-3,23-Mpentane,C7H16        ,PN,(CH3)4 CH2 (CH)2 ,100.2050018,0.6987,362.928,537.348,29.080,0.393,0.3050,0.157998,0.005657,-2.0282E-06,0,0,-199.39,5.82,-2.03E+02,6.65E-01,5.63E-05
565-61-7,3M2Pentanone,C6H12O       ,KET,CH3CO CH CH2 (CH3)2 ,100.1610031,0.8168,390.549,573.000,33.200,0.369,0.3854,-0.21507,0.00628996,-3.7992E-06,8.40692E-10,5.633E-14,-281.00,,-2.81E+02,4.92E-01,5.49E-05
565-69-5,E2C3Ketone,C6H12O       ,KET,CH2CO (CH3)3 CH ,100.1610031,0.8170,386.549,567.000,33.200,0.369,0.3911,0.471007,0.00262396,3.54222E-06,-5.61924E-09,2.14332E-12,-286.10,-133.00,-2.85E+02,4.95E-01,5.37E-05
565-75-3,234-Mpentane,C8H18        ,PN,(CH3)5 (CH)3 ,114.2320023,0.7226,386.622,566.408,27.296,0.461,0.3200,0.109999,0.0056756,-2.05319E-06,0,0,-217.59,19.28,-2.22E+02,7.87E-01,6.23E-05
565-80-0,DiIPKetone,C7H14O       ,Misc,,114.1880035,0.9224,397.549,576.000,30.200,0.416,0.4053,-0.547671,0.00796094,-6.72735E-06,3.1845E-09,-6.39615E-13,-311.40,-132.00,-3.11E+02,5.81E-01,6.46E-05
56-81-5,Glycerol,C3H8O3       ,Misc,(CH2)2 CH (OH)3 ,92.09500122,1.2620,562.000,725.000,66.700,0.255,1.5084,0.0915316,0.00482644,-3.43239E-06,1.01895E-09,0,-585.28,-448.49,-5.85E+02,4.81E-01,3.51E-05
56-86-0,L-GlutamAcid,C5H9NO4      ,Misc,(CH2)2 CHNH2 (COOH)2 ,147.1309967,1.1154,591.000,782.000,41.300,0.420,1.1835,0.71701,0.0014611,1.58391E-06,-2.40156E-09,8.164E-13,-824.00,-636.00,-8.23E+02,5.80E-01,3.70E-05
56-87-1,Lysine,C6H14N2O2    ,Misc,(CH2)3 CHNH2 CH2NH2 COOH ,146.1889954,0.9572,615.000,821.000,35.300,0.502,1.0127,0.19238,0.0047546,-2.76246E-06,5.6576E-10,2.56665E-14,-461.00,-218.00,-4.61E+02,8.00E-01,5.26E-05
57018-52-7,PGlyTBEther,C7H16O2      ,Misc,(CH3)4 CH C OH CH2O ,132.2030029,0.8757,417.148,567.000,29.900,0.433,0.7738,-0.44566,0.0077043,-5.87763E-06,1.78824E-09,-8.80215E-15,-553.90,,-5.54E+02,7.89E-01,6.45E-05
57-10-3,1C16oicAcid,C16H32O2     ,Misc,COOH (CH2)14 CH3 ,256.428009,0.8824,624.150,775.000,15.000,0.917,1.0830,-0.218587,0.00706668,-5.27031E-06,2.12826E-09,-3.67859E-13,-737.00,-274.00,-7.37E+02,1.52E+00,1.23E-04
57-11-4,StearicAcid,C18H36O2     ,Misc,COOH (CH2)16 CH3 ,284.4830017,0.8825,648.348,799.000,13.500,1.020,1.0841,0.0312799,0.00594754,-3.21096E-06,5.73796E-10,2.5704E-14,-781.10,-244.40,-7.81E+02,1.71E+00,1.34E-04
57-14-7,11MHydrazine,C2H8N2       ,MISC,,60.11000061,0.7921,336.148,508.898,57.370,0.218,0.4619,-0.307829,0.00607158,-2.581E-06,0,0,-32.77,,-3.28E+01,-3.28E+01,-3.28E+01
571-58-4,14MNaphthaln,C12H12       ,AMR,(AC)2 (ACH)6 (ACCH3)2 ,156.2290039,1.0206,540.500,776.799,30.100,0.521,0.4430,-0.38061,0.00652434,-4.68906E-06,1.32553E-09,4.06879E-21,82.51,216.90,7.95E+01,4.48E-01,3.82E-05
571-61-9,"1,5-DIMETHYLNAPHTHALENE",C12H12,MISC,,156.227,0.0000,538.160,773.470,30.060,0.522,0.4430,-0.380619227,0.00652448,-4.6892E-06,1.32557E-09,0,81.80,216.19,7.88E-02,4.48E-01,3.83E-08
573-98-8,12MNaphthaln,C12H12       ,AMR,(AC)2 (ACCH3)2 (ACH)6 ,156.2290039,1.0220,539.500,775.299,30.100,0.521,0.4430,-0.38061,0.00652434,-4.68906E-06,1.32553E-09,4.06879E-21,83.55,216.23,8.06E+01,4.42E-01,3.83E-05
57-50-1,Sucrose,C12H22O11    ,Misc,,342.2990112,1.5157,735.000,1063.000,26.900,0.761,0.3696,-0.172813,0.00505754,-3.41028E-06,9.46552E-10,-5.87585E-14,-2221.69,,,2.26E+00,8.48E-05
575-37-1,17MNaphthlen,C12H12       ,AMR,(AC)2 (ACH)6 (ACCH3)2 ,156.2290039,1.0155,536.200,770.598,30.100,0.521,0.4430,-0.33133,0.00628814,-4.40169E-06,1.21563E-09,1.70767E-21,81.70,213.72,7.90E+01,4.39E-01,3.96E-05
575-41-7,13MNaphthaln,C12H12       ,AMR,(AC)2 (ACH)6 (ACCH3)2 ,156.2290039,1.0185,538.500,773.799,30.100,0.521,0.4430,-0.33133,0.00628814,-4.40169E-06,1.21563E-09,1.70767E-21,81.70,213.72,7.90E+01,4.39E-01,3.96E-05
575-43-9,16MNaphthlen,C12H12       ,AMR,(AC)2 (ACH)6 (ACCH3)2 ,156.2290039,1.0061,536.200,770.598,30.100,0.521,0.4430,-0.33133,0.00628814,-4.40169E-06,1.21563E-09,1.70767E-21,82.51,210.90,7.97E+01,4.39E-01,3.96E-05
57-55-6,12-C3diol,C3H8O2       ,MISC,CH3 CH2 CH (OH)2 ,76.09600067,1.0411,460.500,625.000,60.700,0.237,1.1065,0.0083107,0.0055388,-3.91995E-06,1.17704E-09,0,-424.18,-304.48,-4.24E+02,4.00E-01,3.49E-05
5756-43-4,E_n-H_Ether,C8H18O       ,Misc,(CH2)5 (CH3)2 CH2O ,130.2299957,0.7775,417.150,583.000,24.600,0.487,0.4944,0.070171,0.005668,-2.27244E-06,-3.73052E-10,3.8159E-13,-333.70,,-3.33E+02,7.92E-01,7.38E-05
57-57-8,betaPLactone,C3H4O2       ,Misc,(CH2)2 COO ,72.06340027,1.2738,435.148,685.000,69.000,0.195,0.3447,0.0241997,0.0039744,-2.26488E-06,4.76452E-10,0,-297.05,-238.25,-2.97E+02,2.15E-01,1.93E-05
576-26-1,26-Xylenol,C8H10O       ,Misc,(ACH)3 (ACCH3)2 ACOH ,122.1660004,0.8922,474.200,700.000,42.600,0.520,0.4553,-0.0127131,0.00525704,-3.16506E-06,7.23512E-10,0,-161.89,-38.89,-1.62E+02,4.14E-01,3.44E-05
578-54-1,oEAniline,C8H11N       ,Misc,CH3 (ACH)4 ACCH2 ACNH2 ,121.1800003,0.9854,482.648,704.000,37.400,0.399,0.4631,-0.401804,0.00734854,-6.70968E-06,3.36891E-09,-7.2732E-13,33.30,170.00,3.34E+01,4.45E-01,4.25E-05
57-88-5,bCholesterol,C27H46O      ,Misc,OH CH=C (CH3)5 (CH2)11 (CH)7 (C)2 ,386.6619873,1.1307,771.000,959.000,12.500,1.350,0.9477,-0.43462,0.0085072,-7.2624E-06,3.23824E-09,-5.925E-13,-585.20,,-5.88E+02,2.75E+00,1.24E-04
579-66-8,26DEAniline,C10H15N      ,Misc,(CH3)2 (ACH)3 (ACCH2)2 ACNH2 ,149.2350006,0.9101,508.648,678.000,31.200,0.495,0.9538,-0.323516,0.00724506,-6.24726E-06,2.91963E-09,-5.72015E-13,-20.50,176.00,-2.03E+01,6.41E-01,5.67E-05
58-08-2,Caffeine,C8H10N4O2    ,Misc,,194.1929932,0.8455,539.856,724.269,19.006,0.510,0.5844,-0.20965,0.0048986,-2.93436E-06,3.33844E-10,1.70675E-13,-32.77,,-3.28E+01,-3.28E+01,-3.28E+01
5809-59-6,AcrlCyHydrin,C4H5NO       ,Misc,,83.08979797,1.0119,461.000,639.000,45.100,0.278,0.8435,0.60263,0.0020388,6.9435E-07,-1.66804E-09,5.945E-13,11.59,,1.22E+01,1.86E-01,2.15E-05
581-40-8,23MNaphthlen,C12H12       ,AMR,(AC)2 (ACH)6 (ACCH3)2 ,156.2290039,1.0070,541.200,777.799,30.100,0.521,0.4430,-0.205118,0.0056701,-3.60525E-06,8.92004E-10,4.1582E-21,83.55,215.02,8.11E+01,4.35E-01,4.27E-05
581-42-0,26DMNaphthal,C12H12       ,AMR,(AC)2 (ACH)6 (ACCH3)2 ,156.227005,0.9298,535.150,777.000,31.700,0.520,0.4177,-0.330712,0.00647894,-5.21901E-06,2.23349E-09,-4.00327E-13,83.97,214.64,8.46E+01,4.22E-01,4.80E-05
582-16-1,27-DiM-Napth,C12H12       ,AMR,(AC)2 (ACH)6 (ACCH3)2 ,156.227005,1.0076,536.150,775.000,32.300,0.600,0.4477,-0.35044,0.0065736,-5.3769E-06,2.343E-09,-4.2732E-13,79.90,210.70,8.05E+01,4.23E-01,4.80E-05
583-48-2,34-Mhexane,C8H18        ,PN,(CH3)4 (CH2)2 (CH)2 ,114.2320023,0.7226,390.880,568.848,26.921,0.466,0.3270,0.13,0.0056756,-2.05319E-06,0,0,-213.09,16.99,-2.17E+02,7.66E-01,6.24E-05
583-58-4,"2,6-dimethylpyridine (2,6 lutidine)",C7H9N,MISC,,107.155,,416.910,623.800,39.800,0.367,0.3730,0.264809687,0.002467859,4.09978E-06,-6.86736E-09,2.80095E-12,70.04,179.34,,,
583-61-9,"2,3-dimethylpyridine (2,3 lutidine)",C7H9N,MISC,,107.155,,434.300,655.400,40.900,0.367,0.3450,0,0,0,0,0,68.28,177.59,,,
584-02-1,3-Pentanol,C5H12O       ,OL,(CH3)2 (CH2)2 CH OH ,88.14920044,0.8283,388.450,547.000,38.700,0.327,0.6748,-0.0842383,0.00655518,-4.18596E-06,1.09691E-09,0,-316.70,-158.16,-3.16E+02,5.50E-01,4.95E-05
584-03-2,12-C4diol,C4H10O2      ,Misc,CH3 (CH2)2 CH (OH)2 ,90.15000153,1.0079,463.648,618.296,49.733,0.298,1.2180,0.109118,0.00501318,-2.82506E-06,6.21368E-10,5.81225E-20,-430.35,,-4.30E+02,4.68E-01,0.00E+00
584-84-9,TolDiisoCyan,C9H6N2O2     ,Misc,,174.1580048,1.2260,524.150,725.000,30.400,0.525,0.6582,0.100705,0.00226654,4.63545E-06,-8.729E-09,3.97795E-12,-226.14,,-2.29E+02,4.45E-01,3.58E-06
584-94-1,23-Mhexane,C8H18        ,PN,(CH3)4 (CH2)2 (CH)2 ,114.2320023,0.7157,388.760,563.489,26.284,0.468,0.3400,0.15289,0.00567,-2.04611E-06,0,0,-214.09,15.65,-2.18E+02,7.71E-01,6.23E-05
586-62-9,Terpinolene,C10H16       ,OC,(CH3)3 (CH2)3 CH=C C=C ,136.2350006,0.8663,458.148,672.000,27.600,0.509,0.3006,-0.442617,0.00776098,-6.13962E-06,2.6513E-09,-4.9017E-13,66.96,0.00,6.70E+01,6.72E-01,6.22E-05
58-72-0,TriPHC2=,C20H16       ,MISC,CH=C (AC)3 (ACH)15 ,256.3460083,1.0427,669.000,908.000,21.000,0.860,0.5998,-0.498119,0.00699794,-6.3312E-06,3.01294E-09,-5.9077E-13,340.00,512.00,3.40E+02,5.58E-01,6.01E-05
5881-17-4,3-Eoctane,C10H22       ,PN,(CH3)3 (CH2)6 CH ,142.2850037,0.7435,439.648,613.760,21.856,0.561,0.4604,0.156798,0.005691,-2.07374E-06,0,0,-252.13,34.81,-2.57E+02,9.53E-01,7.33E-05
589-18-4,pToluAlcohol,C8H10O       ,Misc,OH ACCH3 ACCH2 (ACH)4 ,122.1669998,1.0186,490.150,681.000,39.200,0.387,0.7480,-0.31258,0.0056698,-3.3198E-06,5.54E-10,1.1691E-13,-133.20,,-1.33E+02,3.76E-01,4.94E-05
589-34-4,3-Mhexane,C7H16        ,PN,(CH3)3 (CH2)3 CH ,100.2050018,0.6908,364.997,535.250,28.138,0.404,0.3270,-0.056075,0.0067554,-3.63198E-06,7.39208E-10,-5.43765E-22,-192.39,5.30,-1.96E+02,6.54E-01,5.65E-05
589-38-8,E-P-Ketone,C6H12O       ,KET,(CH3)2 (CH2)2 CH2CO ,100.1600037,0.8138,396.600,582.799,33.200,0.375,0.3780,0.14222,0.00533874,-2.89717E-06,1.46226E-09,0,-279.75,-126.10,-2.81E+02,5.00E-01,3.26E-05
589-40-2,secC4Formate,C5H10O2      ,ACID,CH CH2 (CH3)2 HCOO ,102.1330032,0.8893,366.550,546.000,35.800,0.336,0.3489,-0.45334,0.0078172,-7.9761E-06,4.434E-09,-9.8925E-13,-445.40,,-4.45E+02,4.70E-01,4.03E-05
589-43-5,24-Mhexane,C8H18        ,PN,(CH3)4 (CH2)2 (CH)2 ,114.2320023,0.7039,382.582,553.520,25.564,0.472,0.3410,0.1845,0.005661,-2.03378E-06,0,0,-219.59,11.51,-2.24E+02,7.69E-01,6.23E-05
589-53-7,4-Mheptane,C8H18        ,PN,(CH3)3 (CH2)4 CH ,114.2320023,0.7081,390.864,561.739,25.421,0.476,0.3690,0.187098,0.00566458,-2.03825E-06,0,0,-212.19,15.98,-2.16E+02,7.61E-01,6.23E-05
589-55-9,4-heptanol,C7H16O,MISC,,116.203,,432.000,0.000,0.000,0.000,0.0000,0,0,0,0,0,0.00,0.00,,,
589-62-8,4-octanol,C8H18O,MISC,,130.23,,440.720,625.100,515.000,0.000,0.0000,0,0,0,0,0,,,,,
589-81-1,3-Mheptane,C8H18        ,PN,(CH3)3 (CH2)4 CH ,114.2320023,0.7092,392.082,563.669,25.463,0.464,0.3690,0.1858,0.005665,-2.03939E-06,0,0,-212.79,13.00,-2.17E+02,7.53E-01,6.24E-05
589-93-5,"2,4-dimethylpyridine (2,4 lutidine)",C7H9N,MISC,,107.155,,431.550,647.000,38.700,0.367,0.3510,0.329518529,0.001046437,8.94984E-06,-1.28518E-08,5.27835E-12,66.44,174.34,,,
589-98-0,3-octanol,C8H18O,MISC,,130.23,,515.000,0.000,0.000,0.000,0.0000,0,0,0,0,0,,,,,
590-01-2,n-B-C3oate,C7H14O2      ,ES,(CH3)2 (CH2)3 CH2COO ,130.1860046,0.8815,419.750,592.000,27.000,0.442,0.4754,0.120498,0.0049837,-2.37754E-06,2.55042E-10,0,-502.58,-300.50,-5.02E+02,6.54E-01,5.56E-05
590-18-1,cis2-Butene,C4H8         ,N,(CH3)2 CH=CH ,56.10770035,0.6265,276.867,435.578,42.058,0.234,0.2030,0.00783491,0.00526308,-1.81435E-06,-1.09787E-11,-1.39571E-22,-6.99,65.46,-8.62E+00,2.38E-01,3.61E-05
590-19-2,12-Butadiene,C4H6         ,OD,,54.09180069,0.6513,283.000,443.699,44.988,0.219,0.2550,0.4646,0.0035058,1.43942E-08,-1.32778E-09,4.45953E-13,162.29,198.45,1.61E+02,1.17E-01,2.22E-05
590-35-2,22-Mpentane,C7H16        ,PN,(CH3)4 (CH2)2 C ,100.2050018,0.6776,352.341,520.500,27.733,0.416,0.3000,0.215498,0.005639,-2.00468E-06,0,0,-206.29,0.80,-2.10E+02,6.86E-01,5.64E-05
590-66-9,11-Mcychexan,C8H16        ,N,(CH3)2 (CH2)5 C ,112.2080002,0.7844,392.700,590.927,29.646,0.449,0.2380,-0.26349,0.00548916,1.14677E-06,-4.12024E-09,1.56253E-12,-181.09,35.23,-1.87E+02,7.29E-01,5.15E-05
590-67-0,1-M-CC6ol,C7H14O       ,Misc,CH3 (CH2)5 C OH ,114.1880035,0.9243,430.148,602.000,37.700,0.414,0.6830,-0.36535,0.00667526,-3.3555E-06,4.7038E-10,0,-331.99,-128.76,-3.33E+02,1.03E+00,5.39E-05
590-73-8,22-Mhexane,C8H18        ,PN,(CH3)4 (CH2)3 C ,114.2320023,0.6990,379.992,549.869,25.291,0.478,0.3430,0.1975,0.00565718,-2.02856E-06,0,0,-224.89,10.68,-2.29E+02,7.83E-01,6.23E-05
5911-004-06,3-METHYLNONANE,C10H22,MISC,,142.285,0.7290,440.950,613.000,21.600,0.583,0.4650,0.34517342,0.00436455,1.08002E-06,-3.0512E-09,1.05661E-12,-253.97,30.21,-2.59E-01,9.47E-01,7.25E-08
5911-04-6,3-Mnonane,C10H22       ,PN,(CH3)3 (CH2)6 CH ,142.2850037,0.7366,440.927,613.539,21.374,0.582,0.4628,0.1855,0.005686,-2.06705E-06,0,0,-254.40,,-2.59E+02,9.47E-01,7.25E-05
591-22-0,"3,4-dimethylpyridine (3,4 lutidine)",C7H9N,MISC,,107.155,,452.290,683.800,40.900,0.367,0.3370,0.320828613,0.001180587,8.37336E-06,-1.20332E-08,4.9067E-12,72.80,182.44,,,
591-50-4,IodoBZ,C6H5I        ,Misc,AC (ACH)5 I ,204.0200043,1.8393,461.600,721.098,45.200,0.351,0.2490,-0.121462,0.0026139,-2.02974E-06,6.16104E-10,1.44398E-21,162.55,187.78,1.26E+02,1.67E-01,9.79E-06
591-68-4,nBValerate,C9H18O2      ,Misc,CH2COO (CH2)5 (CH3)2 ,158.2400055,0.8719,459.648,629.000,23.300,0.547,0.5955,-0.325119,0.00766338,-7.17453E-06,3.80157E-09,-8.5164E-13,-560.20,-303.80,-5.60E+02,8.39E-01,6.94E-05
591-76-4,2-Mhexane,C7H16        ,PN,(CH3)3 (CH2)3 CH ,100.2050018,0.6822,363.199,530.369,27.336,0.421,0.3400,-0.125,0.00720518,-3.8391E-06,3.94534E-10,1.15918E-13,-195.09,3.70,-1.99E+02,6.58E-01,5.65E-05
591-78-6,M-B-Ketone,C6H12O       ,KET,CH3 (CH2)3 CH3CO ,100.1600037,0.8158,400.700,587.000,33.200,0.375,0.3920,0.14222,0.00533874,-2.89717E-06,1.46226E-09,0,-279.75,-129.90,-2.81E+02,5.00E-01,3.26E-05
591-87-7,AllylAcetate,C5H8O2       ,Misc,CH3 CH=CH CH3COO ,100.1110001,0.9336,377.148,557.000,36.700,0.323,0.3878,-0.0371478,0.00507948,-3.18393E-06,7.20732E-10,0,-333.99,-229.00,-3.34E+02,3.09E-01,3.24E-05
591-93-5,14Pentadiene,C5H8         ,OD,CH2 (CH2=CH)2 ,68.1190033,0.6652,299.109,477.592,37.893,0.276,0.1040,0.1192,0.00562858,-1.99013E-06,0,0,105.49,170.25,1.04E+02,2.13E-01,2.59E-05
591-95-7,12Pentadiene,C5H8         ,OD,,68.1190033,0.6970,317.993,503.148,40.734,0.276,0.1729,0.03955,0.00565558,-2.02634E-06,0,0,145.69,210.41,1.44E+02,2.13E-01,2.58E-05