CAS Number,Name,Formula,Type,UNIFAC,MW,SG6060,TB,Tc,Pc,Vc,OMEGA,CPA,CPB,CPC,CPD,CPE,HFORM25,GFORM25,GIBBSA,GIBBSB,GIBBSC
79-43-6,DiClC2oicAc,C2H2Cl2O2    ,ES,CHCl2 COOH ,128.9420013,1.5690,467.148,686.000,51.700,0.265,0.5550,0.3934,0.001192286,-1.22752E-07,-6.6316E-10,3.24458E-13,-436.00,-368.00,-4.34E+02,2.13E-01,3.23E-05
79458-27-8,DECYL-DISULFIDE,C20H42S2,Misc,,346.672,0.6850,663.160,820.080,10.380,1.264,0.8300,0.016294942,0.005761642,-3.34235E-06,7.72286E-10,0,-405.72,154.77,-3.93E-01,1.76E+00,2.68E-07
79-46-9,2-NitroC3,C3H7NO2      ,MISC,(CH3)2 CHNO2 ,89.09400177,0.9943,393.398,592.000,44.500,0.288,0.3761,0.195604,0.00356194,-7.38534E-07,-9.23112E-10,4.11751E-13,-140.15,-12.80,-1.43E+02,4.28E-01,2.66E-05
79-53-8,Cl-F5-C3one,C3ClF5O      ,MISC,,182.4750061,1.5146,281.000,410.600,28.800,0.310,0.3470,-0.00924193,0.002965,-2.45731E-06,6.85092E-10,0,-32.77,,-3.28E+01,-3.28E+01,-3.28E+01
79-92-5,Camphene,C10H16       ,Misc,,136.2350006,0.8484,433.648,638.000,27.500,0.499,0.2957,-1.15026,0.00989916,-8.09988E-06,3.44517E-09,-6.09195E-13,-28.60,0.00,-3.28E+01,-3.28E+01,-3.28E+01
800000-51-5,"hydrogen, normal",H2,OC,,2.016,,20.380,33.250,12.970,0.065,-0.2160,0,0,0,0,0,0.00,0.00,,,
800000-54-8,"deuterium, normal",D2,MISC,,4.028,,23.650,38.350,16.650,0.060,-0.1430,0,0,0,0,0,0.00,0.00,,,
8001-22-7,SoyBeanOil,C16H30O2     ,MISC,CH3 (CH2)12 (CH=CH)2 COOH ,277.7900085,0.9253,777.070,965.895,13.194,1.028,0.9542,-0.0531265,0.00600274,-2.27431E-06,-7.78524E-17,2.95732E-20,-530.68,,-5.40E+02,1.53E+00,9.24E-06
80-05-7,BisPhenol,C15H16O2     ,Misc,(ACH)8 (ACOH)2 (AC)2 C (CH3)2 ,228.2910004,1.0420,633.650,849.000,29.300,0.677,0.9450,-0.513535,0.00763944,-7.61574E-06,3.94006E-09,-8.19805E-13,-245.50,-9.42,-2.46E+02,7.77E-01,4.97E-05
80-15-9,CumHyPeroxid,C9H12O2      ,Misc,,152.1929932,1.0544,442.700,605.000,33.400,0.419,0.9950,-0.30905,0.006707,-6.3597E-06,3.50328E-09,-8.675E-13,-78.40,96.00,-7.84E+01,5.71E-01,4.57E-05
80-43-3,DCumPeroxide,C18H22O2     ,Misc,,270.3710022,1.0362,669.000,884.000,21.800,0.873,0.4497,-0.2803,0.00625,-4.6854E-06,1.75312E-09,-2.66615E-13,-79.40,242.00,-7.93E+01,1.05E+00,8.47E-05
80-46-6,ptAmylPhenol,C11H16O      ,Misc,C CH2 (CH3)3 AC (ACH)4 ACOH ,164.2460022,0.9120,535.150,751.000,29.800,0.546,0.5691,-0.458038,0.00775612,-6.90465E-06,3.25978E-09,-6.39895E-13,-212.00,5.42,-2.12E+02,7.14E-01,5.59E-05
80-47-7,pMethaneHypo,C10H20O2     ,Misc,,172.2680054,0.9453,532.000,711.000,29.500,0.553,0.9007,-0.135231,0.0070008,-5.52474E-06,2.34742E-09,-4.32482E-13,-319.00,,-3.20E+02,1.13E+00,6.25E-05
80-56-8,A-Pinene,C10H16       ,Misc,C (CH3)3 (CH2)2 (CH)2 CH=C ,136.2350006,0.8651,429.290,632.000,27.600,0.504,0.2862,-5.57824,0.030817,-4.31214E-05,2.8037E-08,-6.7965E-12,28.30,216.00,2.34E+01,6.24E-01,7.32E-05
80-62-6,MMethAcryl,C5H8O2       ,OC,CH3COO CH2=C CH3 ,100.1110001,0.9484,373.450,562.000,36.700,0.323,0.3167,-0.109578,0.00518208,-3.28011E-06,7.69836E-10,0,-347.35,-241.59,-3.47E+02,3.49E-01,3.56E-05
811-97-2,R134a,C2H2F4       ,Misc,CF CF3 ,102.0309982,1.2434,247.080,374.180,40.560,0.199,0.3269,0.1024,0.0031972,-2.71134E-06,1.0616E-09,-1.52615E-13,-895.79,-838.40,-8.96E+02,2.31E-01,7.07E-06
814-78-8,M2c3=Ketone,C5H8O        ,Misc,CH3 CH2=C CH3CO ,84.11750031,0.8565,371.148,566.000,38.900,0.302,0.2862,-0.055748,0.00512202,-2.71034E-06,2.60699E-10,1.74961E-13,-180.00,-92.50,-1.79E+02,2.80E-01,3.85E-05
818-61-1,2HyEAcrylate,C5H8O3       ,Misc,,116.112999,1.0172,484.000,662.000,39.800,0.359,0.8641,-0.307651,0.00747294,-8.98245E-06,5.609E-09,-1.33788E-12,-493.00,-371.00,-4.93E+02,4.04E-01,2.18E-05
821-11-4,tr214C4=diol,C4H8O2       ,Misc,(CH2)2 CH=CH (OH)2 ,88.10630035,1.0664,509.998,681.000,52.000,0.279,1.1736,0.0585764,0.00505972,-4.38297E-06,3.11658E-09,-1.21888E-12,-300.00,-191.69,-3.00E+02,3.51E-01,3.74E-05
821-55-6,2Nonanone,C9H18O       ,ACID,CH3CO (CH2)6 CH3 ,142.2400055,0.8256,467.450,643.000,24.100,0.527,0.5733,0.403217,0.00369828,1.2919E-06,-3.31602E-09,1.19761E-12,-340.70,,-3.40E+02,7.69E-01,7.23E-05
821-95-4,1-Undecene,C11H22       ,Misc,CH3 (CH2)8 CH2=CH ,154.2960052,0.7541,465.799,637.000,19.800,0.539,0.5432,0.18035,0.0053068,-1.33832E-06,-4.46528E-10,-6.47645E-22,-144.90,129.45,-1.50E+02,9.12E-01,7.35E-05
822-27-5,OCTYL-DISULFIDE,C16H34S2,N,,290.565,0.8940,619.160,784.460,13.520,1.040,0.8060,0.036002271,0.005545403,-3.20331E-06,7.38802E-10,0,-323.30,121.09,-3.12E-01,1.39E+00,2.26E-07
822-35-5,Cyclobutene,C4H6         ,MISC,CH=CH (CH2)2 ,54.09000015,0.7110,275.799,446.299,52.700,0.196,0.1890,-0.51185,0.00721038,-4.88313E-06,1.31908E-09,5.7831E-21,129.50,174.72,1.28E+02,1.48E-01,2.43E-05
822-50-4,1-tr2-MCC5,C7H14        ,OD,(CH3)2 (CH2)3 (CH)2 ,98.18900299,0.7555,365.015,553.148,34.474,0.362,0.2690,-0.073725,0.00569938,-2.08493E-06,0,0,-136.79,38.37,-1.41E+02,5.84E-01,5.25E-05
827-52-1,Phenyl-CC6,C12H16       ,N,AC (ACH)5 CH (CH2)5 ,160.2590027,0.9471,513.270,744.000,28.800,0.555,0.3785,-0.596285,0.0071052,-4.29291E-06,9.44552E-10,9.18285E-15,-20.91,183.30,-2.15E+01,6.67E-01,6.72E-05
83-32-9,Acenaphthene,C12H10       ,A,(ACH)6 (AC)2 (ACCH2)2 ,154.2100067,1.0860,550.540,803.150,31.000,0.553,0.3811,-0.406523,0.00630572,-4.77408E-06,1.77353E-09,-2.57711E-13,155.00,260.20,1.55E+02,3.40E-01,3.93E-05
836-30-6,p-N-2PhAmine,C12H10N2O2   ,AB,,214.223999,1.1159,600.000,814.000,28.700,0.623,0.7655,-0.20623,0.0052078,-3.9837E-06,1.422E-09,-1.79205E-13,188.36,,1.88E+02,6.21E-01,3.50E-05
84-15-1,o-Terphenyl,C18H14       ,Misc,(AC)4 (ACH)14 ,230.3090057,1.0788,607.000,890.950,39.010,0.753,0.4671,-0.699511,0.00792704,-7.85361E-06,3.96866E-09,-7.9085E-13,276.00,423.00,2.76E+02,4.77E-01,5.28E-05
84-65-1,Anthraquinon,C14H8O2      ,AB,,208.2160034,1.2736,653.050,900.000,31.500,0.580,0.6807,-0.32753,0.0058892,-5.9202E-06,3.77516E-09,-1.2092E-12,-95.20,0.00,-3.28E+01,-3.28E+01,-3.28E+01
84-66-2,DiEPhthalate,C12H14O4     ,Misc,(CH2)2 (CH3)2 (AC)2 (ACH)4 (COO)2 ,222.2400055,1.1233,567.150,757.000,23.300,0.635,0.7626,-0.562069,0.0066967,-6.28392E-06,3.06391E-09,-5.86255E-13,-688.30,-494.00,-6.88E+02,6.27E-01,7.68E-05
84-69-5,DiiBPhthlate,C16H22O4     ,Misc,(CH)2 (CH2)2 (CH3)4 (AC)2 (ACH)4 (COO)2 ,278.3460083,1.0475,593.150,762.000,17.800,0.891,0.9158,-0.360906,0.00582242,-3.30801E-06,-1.12854E-10,5.6085E-13,-823.00,,-8.23E+02,1.18E+00,1.05E-04
84-74-2,DinC4Phthate,C16H22O4     ,Misc,(CH2)6 (CH3)2 (AC)2 (ACH)4 (COO)2 ,278.3479919,1.0505,613.150,781.000,17.500,0.846,0.9569,0.10117,0.002358,0.000006045,-1.09432E-08,5.091E-12,-750.90,-441.40,-7.50E+02,1.16E+00,1.06E-04
84-76-4,DinC9Phthate,C26H42O4     ,Misc,(COO)2 (ACH)4 (AC)2 (CH3)2 (CH2)16 ,418.6170044,0.9732,707.000,866.000,10.700,1.370,0.9961,-0.35942,0.0068192,-5.1384E-06,1.83232E-09,-1.92995E-13,-1016.00,,,2.06E+00,1.78E-04
85-01-8,Phenanthrene,C14H10       ,Misc,(AC)4 (ACH)10 ,178.2330017,1.1194,613.450,869.250,29.000,0.554,0.4949,-0.518029782,0.006665432,-5.47261E-06,1.7853E-09,0,207.10,308.20,2.08E+02,3.23E-01,4.36E-05
85-44-9,PhtlicAnhydr,C8H4O3       ,ADU,,148.1170044,1.3085,557.650,790.000,47.200,0.421,0.7084,0.20738,0.000609424,5.7459E-06,-7.7336E-09,2.98076E-12,-371.80,-329.00,-3.28E+01,-3.28E+01,-3.28E+01
86-73-7,Fluorene,C13H10       ,MISC,(AC)3 (ACH)8 ACCH2 ,166.2220001,1.2974,570.440,869.999,47.000,0.400,0.3493,-0.443903,0.00602766,-3.9795E-06,9.49348E-10,1.82687E-14,186.90,290.10,1.87E+02,3.33E-01,4.24E-05
86-74-8,DiBZoPyrrole,C12H9N       ,AMR,,167.2100067,1.4061,627.865,899.000,32.600,0.482,0.4938,-0.70438,0.0079202,-7.8273E-06,3.8902E-09,-7.7415E-13,209.60,361.00,2.09E+02,5.04E-01,2.38E-05
868-77-9,2HxC2C1acryl,C6H10O3      ,NI,COO OH CH2=C CH3 (CH2)2 ,130.1439972,1.0776,499.150,677.000,36.400,0.394,0.8387,-0.50328,0.0084256,-1.03932E-05,6.7748E-09,-1.73275E-12,-519.30,,-5.20E+02,5.03E-01,3.15E-05
86-89-5,1-n-P-Napth,C15H18       ,Misc,(CH2)3 CH3 (AC)2 (ACH)7 ACCH2 ,198.3079987,0.9703,579.150,803.000,24.400,0.686,0.5354,-0.24388,0.0061796,-4.0437E-06,1.20564E-09,-1.18355E-13,35.02,248.32,3.55E+01,7.02E-01,7.01E-05
871-28-3,1Pentene4yne,C5H6         ,AMR,CH2=CH CH2 CH-=C ,66.1026001,0.7347,315.648,503.000,44.000,0.256,0.1786,0.154891,0.0053391,-4.16067E-06,1.87998E-09,-3.7665E-13,269.00,303.00,2.70E+02,1.04E-01,2.38E-05
871-83-0,2-Mnonane,C10H22       ,OC,(CH3)3 (CH2)6 CH ,142.2850037,0.7297,440.178,610.372,20.959,0.596,0.4614,0.209496,0.005681,-2.0603E-06,0,0,-256.51,29.08,-2.62E+02,9.52E-01,7.18E-05
872-05-9,1-Decene,C10H20       ,PN,CH3 (CH2)7 CH2=CH ,140.2460022,0.7443,443.750,614.817,22.063,0.648,0.4910,0.162099,0.00569158,-2.07446E-06,0,0,-124.19,121.10,-1.29E+02,8.15E-01,6.76E-05
872-10-6,PentylSulphd,C10H22S      ,N,CH2S (CH2)7 (CH3)2 ,174.3509979,0.8447,513.200,700.000,21.300,0.650,0.5510,0.06941,0.00534744,-2.54797E-06,4.53084E-10,2.20708E-21,-208.53,66.07,-2.01E+02,8.53E-01,1.46E-04
872-50-4,nMPyrrolidon,C5H9NO       ,MISC,CH2NH CH2CO (CH2)2 ,99.13300323,1.0335,475.148,724.000,47.830,0.311,0.3611,-0.561551,0.0065205,-4.13556E-06,9.281E-10,1.21434E-13,-207.20,-53.42,-2.08E+02,4.65E-01,4.38E-05
872-93-5,3MSulfolane,C5H10O2S     ,MISC,CH CH2 CH3 (CH2)2Su ,134.1990051,1.1964,549.150,817.000,42.400,0.353,0.4191,0.189539,0.00208214,4.3416E-06,-7.20116E-09,2.94363E-12,-420.00,-257.02,-4.21E+02,5.36E-01,4.42E-05
873-66-5,trans-C3=BZ,C9H10        ,Misc,(ACH)5 AC CH=CH CH3 ,118.1800003,0.9104,443.200,664.598,34.600,0.412,0.3160,-0.24834,0.00611844,-4.17156E-06,1.13343E-09,2.30157E-21,117.15,213.72,1.15E+02,3.19E-01,3.55E-05
874-41-9,4EmXylene,C10H14       ,AU,(ACCH3)2 (ACH)3 ACCH2 CH3 ,134.2200012,0.8807,461.588,665.000,28.800,0.482,0.4140,-0.248484,0.00654784,-4.71003E-06,1.78435E-09,-2.88613E-13,-30.80,128.60,-3.00E+01,5.14E-01,5.98E-05
87-66-1,123-BZtriol,C6H6O3       ,A,(ACOH)3 (ACH)3 ,126.1110001,0.8855,581.848,830.000,88.000,0.318,0.9446,-0.20971,0.0061453,-6.40671E-06,3.35535E-09,-7.0385E-13,-446.00,-341.00,-4.47E+02,3.47E-01,1.22E-05
87-68-3,PerCl13C4==,C4Cl6        ,Misc,(C=C)2 (Cl)6 ,260.7600098,1.5689,488.148,740.000,28.300,0.491,0.1550,0.388699,0.00108062,-1.16707E-06,6.01532E-10,-1.20533E-13,-56.74,22.75,-5.22E+01,2.34E-01,5.98E-05
877-44-1,124-E-BZ,C12H18       ,Misc,(ACH)3 (ACCH2)3 (CH3)3 ,162.2740021,0.8779,490.700,684.500,23.300,0.600,0.4790,-0.0836321,0.005936,-3.37719E-06,7.15336E-10,2.16824E-21,-71.07,145.23,-7.29E+01,7.00E-01,6.81E-05
87-85-4,Hex-M-Benz,C12H18       ,A,(ACCH3)6 ,162.2749939,0.9280,536.600,758.000,27.700,0.593,0.4956,0.1161,0.0056518,-0.000003441,9.9948E-10,-1.10725E-13,-77.40,130.21,-7.65E+01,7.53E-01,6.41E-05
87-89-8,Inositol,C6H12O6      ,A,(CH)6 (OH)6 ,180.1580048,1.4967,691.000,850.000,53.200,0.412,2.3710,-0.24554,0.0070476,-8.1042E-06,4.776E-09,-1.10345E-12,-1130.00,,,9.97E-01,2.71E-05
88-09-5,2EC4oicAcid,C6H12O2      ,Misc,(CH3)2 CH (CH2)2 COOH ,116.1600037,0.9287,466.950,655.000,34.100,0.389,0.6326,-0.398096,0.00749596,-7.3323E-06,4.24516E-09,-1.08446E-12,-517.00,-338.00,-5.17E+02,5.85E-01,5.06E-05
88-72-2,oNitroToluen,C7H7NO2      ,ACID,ACNO2 (ACH)4 ACCH3 ,137.1380005,1.1684,495.640,720.000,38.000,0.441,0.4850,-0.128265154,0.004592315,-2.91357E-06,6.74504E-10,0,45.50,168.00,4.55E+01,4.01E-01,3.23E-05
88-73-3,oNitroClBZ,C6H4ClNO2    ,Misc,(ACH)4 ACCL ACNO2 ,157.5540009,1.3766,519.000,757.000,39.700,0.432,0.4864,0.0267817,0.00350492,-2.39516E-06,5.71464E-10,8.40475E-15,37.20,138.00,3.71E+01,3.32E-01,2.08E-05
88-74-4,o-NitAniline,C6H6N2O2     ,Misc,(ACH)4 ACNH2 ACNO2 ,138.1260071,1.0580,558.000,784.000,44.200,0.406,0.7410,59.986,3.638E-12,-5.5881E-09,-2.3842E-06,-0.0006714,63.80,195.00,,,
88917-22-0,DPGMMEAcetat,C9H18O4      ,Misc,(CH2)5 CH3COO CH2O CH3O ,190.2400055,0.9855,482.450,647.000,22.700,0.609,0.7017,-0.497111,0.00840924,-9.59106E-06,6.09024E-09,-1.59184E-12,-818.00,,-8.19E+02,9.77E-01,6.42E-05
88-99-3,PhthalAcid,C8H6O4       ,Misc,(ACH)4 (AC)2 (COOH)2 ,166.1320038,2.1867,1040.000,1390.000,39.500,0.424,1.0924,-0.32185,0.00433384,-2.77672E-06,6.3668E-10,0,-663.33,-542.48,-6.63E+02,3.00E-01,5.05E-05
89-05-4,PyroMellAcid,C10H6O8      ,Misc,(AC)4 (ACH)2 (COOH)4 ,254.1529999,1.5219,722.000,893.000,31.400,0.584,1.8301,-0.35984,0.0042786,-3.4413E-06,1.26196E-09,-1.24005E-13,-1480.00,-1290.00,-1.48E+00,6.25E-01,7.13E-05
90-00-6,o-E-Phenol,C8H10O       ,Misc,CH3 (ACH)4 ACCH2 ACOH ,122.1660004,1.0379,477.700,702.000,34.200,0.400,0.3845,-0.0373534,0.00508426,-3.26691E-06,1.01376E-09,0,-145.79,-23.15,-1.45E+02,3.87E-01,4.46E-05
90-02-8,SalicylAl,C7H6O2       ,Misc,(ACH)4 (AC)2 OH CHO ,122.1230011,1.1725,469.648,670.000,49.800,0.342,0.6260,-0.190079,0.0052658,-3.51576E-06,8.50876E-10,0,-214.94,-140.73,-2.16E+02,3.01E-01,1.10E-05
90-05-1,Guaiacol,C7H8O2       ,Misc,(ACH)4 AC ACOH CH3O ,124.1380005,1.1212,478.148,697.000,47.300,0.353,0.5627,-0.397063,0.00623816,-5.08485E-06,1.8392E-09,-1.5633E-13,-249.00,-139.00,-2.49E+02,3.59E-01,3.39E-05
90-11-9,1BrNaphthaln,C10H7Br      ,Misc,(ACH)7 (AC)3 Br ,207.0700073,1.4891,554.250,824.000,37.000,0.453,0.3692,-0.227944,0.00417488,-3.6612E-06,1.6321E-09,-2.95248E-13,182.00,242.97,1.82E+02,1.96E-01,2.63E-05
90-12-0,1-M-Naphtln,C11H10       ,Misc,(ACH)7 ACCH3 (AC)2 ,142.1990051,1.0250,517.830,772.039,36.600,0.523,0.3478,-0.0762626,0.00470278,-1.78945E-06,-4.93608E-10,3.47941E-13,116.86,216.40,1.14E+02,3.35E-01,3.42E-05
90-13-1,1ClNaphthaln,C10H7Cl      ,AMR,(AC)2 (ACH)7 ACCL ,162.6170044,1.1803,532.450,785.000,34.000,0.434,0.3827,-0.36893,0.0056812,-5.26965E-06,2.5069E-09,-4.83372E-13,119.80,195.00,1.21E+02,2.38E-01,3.84E-05
90-42-6,2CyHxCC6one,C12H20O      ,Misc,(CH)2 (CH2)8 CH2CO ,180.2890015,0.9820,537.150,756.000,27.400,0.595,0.5116,-0.690539,0.00660024,-1.63686E-06,-1.88058E-09,9.51895E-13,-322.17,,-3.24E+02,1.01E+00,8.74E-05
91-20-3,Naphthalene,C10H8        ,Misc,(ACH)8 (AC)2 ,128.1730042,0.9699,491.139,748.348,40.509,0.410,0.3024,-0.536689,0.0066308,-5.0757E-06,1.54526E-09,0,151.09,223.50,1.49E+02,2.40E-01,3.07E-05
91-22-5,Quinoline,C9H7N        ,AMR,(ACH)4 C5H3N ,129.1600037,1.0974,510.750,782.150,46.600,0.469,0.3287,-0.184743,0.0048033,-2.41358E-06,2.23466E-11,2.16167E-13,222.30,10.80,2.22E+02,2.30E-01,2.93E-05
91-23-6,oNitroAnisol,C7H7NO3      ,NI,(ACH)4 AC CH3O ACNO2 ,153.1380005,1.2541,546.150,782.000,37.600,0.422,0.5613,0.051653023,0.00369982,-1.88432E-06,2.46184E-10,0,-84.50,64.40,-8.45E+01,4.90E-01,3.25E-05
91-57-6,2-M-Naphtln,C11H10       ,Misc,(ACH)7 ACCH3 (AC)2 ,142.1990051,1.0058,514.200,750.000,32.500,0.507,0.3459,-0.0236984,0.00444,-1.43079E-06,-6.925E-10,3.88186E-13,116.00,215.00,1.14E+02,3.32E-01,3.54E-05
91-63-4,Quinaldine,C10H9N       ,AMR,,143.1880035,1.0637,519.750,772.000,29.600,0.490,0.2795,-0.46316,0.00669858,-5.68617E-06,2.44483E-09,-4.26723E-13,176.00,294.00,1.76E+02,3.83E-01,3.33E-05
91-66-7,nnDiEAniline,C10H15N      ,Misc,CH2 (CH3)2 AC (ACH)5 CH2N ,149.2350006,0.9385,489.415,702.000,28.500,0.556,0.4262,-0.710832,0.00835496,-7.36206E-06,3.41034E-09,-6.5004E-13,40.20,262.40,3.99E+01,7.28E-01,6.26E-05
919-94-8,ETrtPetEther,C7H16O       ,Misc,(CH3)4 CH2 CH2O ,116.2030029,0.7681,374.148,544.000,27.400,0.435,0.3529,-0.377908,0.00843356,-7.99911E-06,4.63588E-09,-1.21349E-12,-332.40,,-3.32E+02,7.29E-01,6.24E-05
92-06-8,m-Terphenyl,C18H14       ,Misc,(AC)4 (ACH)14 ,230.3090057,1.0899,650.000,883.000,24.800,0.724,0.5583,-0.699511,0.00792704,-7.85361E-06,3.96866E-09,-7.9085E-13,276.00,423.00,2.76E+02,4.77E-01,5.28E-05
921-47-1,234-Mhexane,C9H20        ,AB,(CH3)5 CH2 (CH)3 ,128.2590027,0.7424,412.209,594.549,25.229,0.494,0.3518,0.101597,0.00569,-2.07263E-06,0,0,-235.39,26.90,-2.40E+02,8.74E-01,6.80E-05
922-28-1,34-Mheptane,C9H20        ,PN,(CH3)4 (CH2)3 (CH)2 ,128.2590027,0.7346,413.747,591.950,24.621,0.503,0.3787,0.1355,0.0056846,-2.06516E-06,0,0,-233.80,25.31,-2.38E+02,8.60E-01,6.80E-05
922-62-3,3Mci2pentene,C6H12        ,PN,(CH3)3 CH2 CH=C ,84.16190338,0.6973,340.842,517.593,32.826,0.351,0.2662,0.10529,0.005656,-2.0267E-06,0,0,-62.22,73.22,-6.04E+01,4.33E-01,4.61E-05
92-51-3,BiCycloHexyl,C12H22       ,N,(CH)2 (CH2)10 ,166.3070068,0.8900,512.190,727.000,25.600,0.598,0.4276,-0.716991,0.0080663,-4.49172E-06,8.11264E-10,6.08145E-14,-272.00,42.60,-2.74E+02,1.04E+00,8.48E-05
92-52-4,BiPhenyl,C12H10       ,N,(ACH)10 (AC)2 ,154.2100067,1.0304,528.148,789.260,38.473,0.502,0.3659,0.51158,0.005585,-1.93214E-06,0,0,182.19,281.08,1.79E+02,3.26E-01,3.53E-05
92-54-4,BIPHENYL,C12H10,AB,,154.211,0.0000,528.150,789.260,38.470,0.502,0.3660,-0.189046177,0.004974742,-2.22688E-06,-2.44626E-10,2.99453E-13,182.09,280.08,1.79E-01,3.26E-01,3.53E-08
925-54-2,2MC6al,C7H14O       ,MISC,(CH3)2 CH (CH2)3 CHO ,114.1880035,0.8246,416.000,593.000,28.500,0.434,0.4637,-0.189527,0.00649124,-4.22976E-06,1.30892E-09,-1.39676E-13,-271.00,,-2.71E+02,5.87E-01,6.03E-05
925-60-0,nPAcrylate,C6H10O2      ,Misc,CH3 (CH2)2 CH2=CH COO ,114.1399994,0.9091,392.148,569.000,32.500,0.376,0.4315,-0.410884,0.00840204,-9.87072E-06,6.1626E-09,-1.48948E-12,-364.00,-231.00,-3.64E+02,4.39E-01,2.89E-05
926-56-7,4M-13-C5==,C7H12        ,Misc,(CH3)2 CH2=CH CH=C ,82.14550018,0.7234,350.148,538.148,35.466,0.333,0.2230,0.02108,0.00567618,-2.05397E-06,0,0,65.69,,6.77E+01,2.86E-01,6.92E-05
92-67-1,pAminDiPhnyl,C12H11N      ,OD,ACNH2 (AC)2 (ACH)9 ,169.2250061,1.0040,575.000,817.000,32.900,0.539,0.5454,-0.594588,0.00763904,-7.46358E-06,3.79215E-09,-7.86175E-13,184.00,318.00,1.84E+02,4.39E-01,3.89E-05
926-82-9,35-Mheptane,C9H20        ,Misc,(CH3)4 (CH2)3 (CH)2 ,128.2590027,0.7256,409.148,583.250,24.014,0.510,0.4031,0.1605,0.00567598,-2.05622E-06,0,0,-238.91,22.18,-2.43E+02,8.67E-01,6.86E-05
928-49-4,3-Hexyne,C6H10        ,PN,(CH2)2 (CH3)2 C-=C ,82.145401,0.7278,354.350,544.000,35.300,0.331,0.2183,-0.19098,0.006936,-5.8239E-06,2.99008E-09,-6.5635E-13,106.00,199.00,1.07E+02,2.95E-01,4.59E-05
928-53-0,Maleonitrile,C4H2N2       ,OD,,78.0734024,1.1730,492.000,704.000,37.300,0.287,0.5575,-0.051747,0.0044656,-3.9714E-06,1.66908E-09,-2.6948E-13,340.20,,3.40E+02,2.63E-02,8.07E-06
92-87-5,Benzidine,C12H12N2     ,Misc,(AC)2 (ACH)8 (ACNH2)2 ,184.2400055,0.9882,674.848,928.999,33.000,0.596,0.7357,-0.538571,0.00777162,-8.08953E-06,4.40252E-09,-9.75005E-13,188.00,,1.87E+02,5.60E-01,3.63E-05
929-06-6,2AmnEtxyc2ol,C4H11NO2     ,Misc,(CH3)2 CH (OH)2 CHNH ,105.137001,1.0519,513.999,699.000,43.600,0.330,0.9693,-0.0915046,0.00623682,-5.7741E-06,3.38759E-09,-9.31765E-13,-365.00,-187.00,-3.82E+02,6.39E-01,-1.14E-05
92-94-4,p-Terphenyl,C18H14       ,MISC,(AC)4 (ACH)14 ,230.3090057,1.0996,649.150,925.947,33.235,0.763,0.5281,-0.699511,0.00792704,-7.85361E-06,3.96866E-09,-7.9085E-13,276.00,424.00,2.76E+02,4.77E-01,5.28E-05
930-89-2,1M-ci2-ECC5,C8H16        ,AB,(CH3)2 (CH2)4 (CH)2 ,112.2080002,0.7888,401.209,595.927,29.889,0.421,0.2923,-0.114788,0.005721,-2.11445E-06,0,0,-107.39,,-1.06E+02,7.22E-01,8.08E-05
930-90-5,1M-tr2-ECC5,C8H16        ,N,(CH3)2 (CH2)4 (CH)2 ,112.2080002,0.7724,394.372,588.148,29.385,0.421,0.2695,-0.06478,0.0057106,-2.1002E-06,0,0,-107.39,,-1.06E+02,7.24E-01,7.60E-05
931-88-4,CC8=,C8H14        ,N,(CH2)6 CH=CH ,110.1949997,0.8514,416.148,632.000,36.800,0.381,0.2804,-0.342485,0.00625048,-1.9668E-06,-1.006E-09,5.76365E-13,-27.00,,-2.71E+01,5.91E-01,6.02E-05
93-22-1,2-PENTYLNAPHTHALENE,C15H18,OD,,198.307,0.9530,583.160,797.480,22.740,0.690,0.5750,-0.280378403,0.006427912,-4.3478E-06,1.16415E-09,0,31.67,246.77,2.73E-02,7.17E-01,5.74E-08
932-39-8,1-ci2-ECC5,C9H18        ,MISC,(CH3)2 (CH2)5 (CH)2 ,126.2360001,0.7995,426.726,624.539,27.765,0.478,0.3251,-0.09407,0.005726,-2.12342E-06,0,0,-128.03,,-1.27E+02,8.17E-01,8.86E-05
932-40-1,1-tr2-ECC5,C9H18        ,N,(CH3)2 (CH2)5 (CH)2 ,126.2360001,0.7857,420.699,617.872,27.054,0.478,0.2999,-0.052823,0.005719,-2.11184E-06,0,0,-128.03,,-1.27E+02,8.19E-01,8.40E-05
932-43-4,1Mci2n-PCC5,C9H18        ,N,(CH3)2 (CH2)5 (CH)2 ,126.2360001,0.7959,425.750,623.427,27.406,0.478,0.3176,-0.0818378,0.0057258,-2.12042E-06,0,0,-128.03,,-1.27E+02,8.18E-01,8.72E-05
932-44-5,1Mtr2n-PCC5,C9H18        ,N,(CH3)2 (CH2)5 (CH)2 ,126.2360001,0.7809,419.539,616.481,26.951,0.478,0.2964,-0.036235,0.00571598,-2.10773E-06,0,0,-128.03,,-1.27E+02,8.20E-01,8.22E-05