CAS Number,Name,Formula,Type,UNIFAC,MW,SG6060,TB,Tc,Pc,Vc,OMEGA,CPA,CPB,CPC,CPD,CPE,HFORM25,GFORM25,GIBBSA,GIBBSB,GIBBSC
507-19-7,2-Br-2-M-C3,C4H9Br       ,Misc,(CH3)3 C Br ,137.029007,1.2281,346.398,541.098,43.600,0.310,0.2460,-0.0645114,0.00386154,-2.93139E-06,8.97452E-10,6.0747E-21,-133.89,,-1.56E+02,4.13E-01,1.64E-05
507-20-0,2-Cl-2-M-C3,C4H9Cl       ,Misc,(CH3)3 CCl ,92.56900024,0.8428,322.000,507.000,39.500,0.295,0.1900,-0.0424917,0.00502874,-3.1197E-06,8.50824E-10,0,-183.39,-64.10,-1.85E+02,3.98E-01,2.78E-05
50-78-2,AcetylsalicA,C9H8O4       ,Misc,(AC)2 (ACH)4 CH3COO COOH ,180.1600037,1.3320,564.000,765.000,32.700,0.469,0.8327,-0.30817,0.0053522,-4.4604E-06,1.71592E-09,-2.15665E-13,-703.20,,-7.03E+02,4.73E-01,3.89E-05
50-81-7,AscorbicAcid,C6H8O6       ,Misc,(CH)2 CH2 C=C (OH)4 COO ,176.1260071,1.6153,637.000,783.000,52.900,0.339,2.3885,0.21846,0.0044722,-4.5939E-06,2.63768E-09,-6.4835E-13,-951.00,-731.00,-9.52E+02,7.37E-01,1.21E-05
509-14-8,TetraNitroC1,CN4O8        ,Misc,,196.0330048,1.6490,398.850,540.000,26.800,0.439,0.7052,0.087899,0.0029788,-2.59773E-06,9.5688E-10,-1.1429E-13,82.30,0.00,-3.28E+01,-3.28E+01,-3.28E+01
50-99-7,Dextrose,C6H12O6      ,Misc,(CH)4 CH2 (OH)5 CH-O ,180.1580048,1.1820,617.000,755.000,48.200,0.414,2.3867,-0.16686,0.0055522,-3.3894E-06,-7.7656E-10,1.12295E-12,-975.32,,-9.77E+02,9.29E-01,3.40E-05
512-56-1,TMPhosphate,C3H9O4P      ,Misc,,140.076004,1.2119,465.850,722.000,56.600,0.277,0.3695,0.402393,0.001798556,2.09366E-06,-3.33266E-09,1.16808E-12,-1080.00,0.00,-3.28E+01,-3.28E+01,-3.28E+01
513-35-9,2M-2-butene,C5H10        ,N,(CH3)3 CH=C ,70.13500214,0.6667,311.704,470.372,34.474,0.320,0.2850,0.168199,0.00500298,-2.86571E-06,2.68254E-10,0,-42.58,61.60,-4.46E+01,3.36E-01,4.10E-05
513-36-0,i-C4_Cl,C4H9Cl       ,Misc,CH (CH3)2 CH2Cl ,92.56819916,0.8835,342.000,528.000,39.000,0.300,0.2416,-0.0933,0.0051242,-3.5061E-06,1.27356E-09,-2.03205E-13,-161.50,,-1.61E+02,3.61E-01,4.87E-05
513-44-0,2-M-1C3Thiol,C4H10S       ,MISC,CH2SH (CH3)2 CH ,90.18000031,0.8393,361.600,557.000,39.000,0.308,0.2580,-0.0152916,0.0054728,-3.73575E-06,1.02312E-09,2.04775E-21,-97.23,5.56,-9.27E+01,3.05E-01,8.15E-05
513-53-1,2Butanethiol,C4H10S       ,MISC,CH2 (CH3)2 CHSH ,90.19000244,0.8322,358.100,551.000,38.500,0.308,0.2570,0.0719701,0.00504222,-3.07062E-06,7.40112E-10,-5.72505E-21,-96.23,5.40,-9.17E+01,3.01E-01,8.14E-05
513-81-5,23M-13-C4==,C6H10        ,OD,(CH3)2 (CH2=C)2 ,82.14550018,0.7305,341.920,527.039,35.363,0.333,0.2121,-0.033574,0.0056816,-2.06105E-06,0,0,64.11,144.00,6.37E+01,3.07E-01,3.32E-05
513-86-0,3-Hy-2C4one,C4H8O2       ,ACID,CH3 CH OH CH3CO ,88.12000275,1.0059,416.148,585.598,48.280,0.278,0.7940,-0.65168,0.00611754,-4.27065E-06,0,0,-395.98,,-3.92E+02,3.34E-01,8.19E-05
514-10-3,AbieticAcid,C20H30O2     ,Misc,(CH3)4 (CH2)6 (CH)3 (C)2 (CH=C)2 COOH ,302.4570007,1.2138,649.700,832.000,16.800,0.930,1.1288,-0.859019,0.0090202,-7.76196E-06,3.38229E-09,-6.01055E-13,-537.00,-50.90,-5.41E+02,1.62E+00,9.42E-05
5171-84-6,3344-Mhexane,C10H22       ,PN,(CH3)6 (CH2)2 (C)2 ,142.2850037,0.7853,443.148,646.872,25.716,0.506,0.3239,0.0017959,0.005719,-2.11145E-06,0,0,-247.40,47.07,-2.59E+02,1.00E+00,6.46E-05
51750-65-3,2244-Mhexane,C10H22       ,PN,(CH3)6 (CH2)2 (C)2 ,142.2850037,0.7495,426.928,610.372,22.476,0.535,0.3426,0.1067,0.005695,-2.07938E-06,0,0,-259.41,43.35,-2.64E+02,1.01E+00,6.38E-05
5194-50-3,cstrns24C6==,C6H10        ,OD,(CH3)2 (CH=CH)2 ,82.145401,0.7280,356.648,538.000,33.500,0.331,0.2754,-0.291164,0.00728608,-5.79177E-06,2.5543E-09,-4.96806E-13,47.40,146.00,4.80E+01,3.16E-01,4.32E-05
5194-51-4,trstrs24C6==,C6H10        ,OD,(CH3)2 (CH=CH)2 ,82.145401,0.7193,355.049,535.000,33.500,0.331,0.2821,-0.197129,0.0072432,-6.0321E-06,2.85388E-09,-5.81765E-13,43.30,142.00,4.39E+01,3.17E-01,4.02E-05
519-73-3,TriPhenylC1,C19H16       ,MISC,CH (AC)3 (ACH)15 ,244.3359985,1.0687,632.150,865.000,22.000,0.753,0.5735,-0.59832,0.0070698,-6.0807E-06,2.7302E-09,-5.0405E-13,271.20,,2.72E+02,5.72E-01,7.13E-05
52078-56-5,1-C23=,C23H46       ,N,CH3 (CH2)20 CH2=CH ,322.6000061,0.7978,652.000,794.890,9.776,1.353,0.9397,0.0524486,0.00607188,-2.66366E-06,2.29074E-10,-5.2033E-22,-392.62,,-3.92E+02,2.04E+00,1.67E-04
526-73-8,123-MBenzene,C9H12        ,A,(ACH)3 (ACCH3)3 ,120.1940002,0.8984,449.265,664.528,34.543,0.435,0.3660,0.3126,0.00280014,2.7083E-06,-4.35584E-09,1.52488E-12,-9.59,124.96,-1.19E+01,4.41E-01,4.94E-05
526-75-0,23-Xylenol,C8H10O       ,Misc,(ACH)3 (ACCH3)2 ACOH ,122.1660004,0.9429,490.100,722.799,48.600,0.470,0.5110,0.0797795,0.00514866,-3.13269E-06,7.2596E-10,0,-157.29,-33.20,-1.57E+02,4.00E-01,2.97E-05
527-53-7,1235-M-BZ,C10H14       ,A,(ACH)2 (ACCH3)4 ,134.2100067,0.8874,471.199,662.200,28.776,0.474,0.5410,0.0015832,0.00572898,-2.12465E-06,0,0,-44.84,118.74,-4.74E+01,5.41E-01,5.05E-05
527-84-4,o-Cymene,C10H14       ,A,(CH3)2 (ACH)4 ACCH3 ACCH ,134.2220001,0.8812,451.328,669.817,28.958,0.478,0.2888,-0.35619,0.005773,-2.1839E-06,0,0,-29.95,136.00,-3.01E+01,5.30E-01,6.37E-05
528-29-0,12-NitroBZ,C6H4N2O4     ,MISC,(ACNO2)2 (ACH)4 ,168.1080017,1.3603,592.000,830.000,38.500,0.434,0.6874,-0.0665641,0.00377208,-2.51955E-06,5.9722E-10,1.47319E-20,-1.80,0.00,-1.73E+00,5.88E-01,0.00E+00
528-44-9,TriMelliAcid,C9H6O6       ,Misc,(COOH)3 (ACH)3 (AC)3 ,210.1430054,1.3171,675.000,860.000,35.100,0.499,1.4911,-0.26676,0.0038568,-2.37696E-06,4.5524E-10,4.76335E-14,-1095.00,,,4.91E-01,6.16E-05
52896-87-4,4-i-Pheptane,C10H22       ,PN,(CH3)4 (CH2)4 (CH)2 ,142.2850037,0.7424,432.039,607.760,22.250,0.537,0.4186,0.1453,0.00569,-2.07263E-06,0,0,-254.64,38.66,-2.57E+02,9.66E-01,7.34E-05
52896-88-5,2M-4Eheptane,C10H22,PN,(CH3)4 (CH2)4 (CH)2 ,142.28,0.7393,174.160,344.440,21.040,0.603,0.4842,-0.324500984,0.007787461,-4.94209E-06,1.25597E-09,0,-258.24,29.83,-2.64E-01,9.61E-01,7.41E-08
52896-89-6,2M-4Eheptane,C10H22       ,MISC,(CH3)4 (CH2)4 (CH)2 ,142.2850037,0.7393,429.371,601.872,21.856,0.545,0.4410,0.1515,0.005688,-2.06966E-06,0,0,-259.74,36.69,-2.64E+02,9.61E-01,7.41E-05
52896-90-9,3M-5Eheptane,C10H22       ,PN,(CH3)4 (CH2)4 (CH)2 ,142.2850037,0.7439,431.372,606.760,22.250,0.541,0.4188,0.137898,0.005691,-2.07413E-06,0,0,-257.27,32.68,-2.61E+02,9.61E-01,7.51E-05
52896-91-0,4M-3Eheptane,C10H22       ,PN,(CH3)4 (CH2)4 (CH)2 ,142.2850037,0.7538,436.148,615.539,22.821,0.533,0.4129,0.109798,0.005696,-2.08346E-06,0,0,-252.25,,-2.56E+02,9.50E-01,7.42E-05
52896-92-1,223-Mheptane,C10H22       ,PN,(CH3)5 (CH2)3 CH C ,142.2850037,0.7455,430.760,611.872,22.684,0.546,0.3972,0.1305,0.005692,-2.07563E-06,0,0,-262.92,33.01,-2.68E+02,9.86E-01,6.81E-05
52896-93-2,233-Mheptane,C10H22       ,PN,(CH3)5 (CH2)3 CH C ,142.2850037,0.7522,433.372,617.648,23.235,0.538,0.3914,0.109998,0.005697,-2.08196E-06,0,0,-260.24,34.43,-2.65E+02,9.82E-01,6.82E-05
52896-95-4,234-Mheptane,C10H22       ,PN,(CH3)5 (CH2)2 (CH)3 ,142.2850037,0.7518,433.039,613.872,22.891,0.538,0.4412,0.1109,0.005697,-2.0816E-06,0,0,-256.44,35.40,-2.61E+02,9.71E-01,7.35E-05
52896-99-8,22M-4Ehexane,C10H22       ,PN,(CH3)5 (CH2)3 CH C ,142.2850037,0.7373,420.372,594.760,22.201,0.539,0.3882,0.1395,0.0056866,-2.0678E-06,0,0,-262.41,35.65,-2.67E+02,9.93E-01,6.94E-05
52897-00-4,23M-3Ehexane,C10H22       ,PN,(CH3)5 (CH2)3 CH C ,142.2850037,0.7669,436.872,626.927,24.201,0.516,0.3568,0.06021,0.00570718,-2.0954E-06,0,0,-254.55,37.95,-2.60E+02,9.77E-01,6.86E-05
52897-01-5,23M-4Ehexane,C10H22       ,PN,(CH3)5 (CH2)2 (CH)3 ,142.2850037,0.7587,434.039,617.372,23.373,0.524,0.3845,0.086301,0.0057016,-2.08796E-06,0,0,-253.88,39.12,-2.59E+02,9.74E-01,7.42E-05
52897-03-7,24M-4Ehexane,C10H22       ,PN,(CH3)5 (CH2)3 CH C ,142.2850037,0.7595,434.260,621.039,23.718,0.524,0.3644,0.0835928,0.00570198,-2.08868E-06,0,0,-256.35,37.70,-2.62E+02,9.83E-01,6.95E-05
52897-04-8,25M-3Ehexane,C10H22       ,PN,(CH3)5 (CH2)2 (CH)3 ,142.2850037,0.7439,427.260,603.539,22.408,0.537,0.3994,0.129096,0.005691,-2.07413E-06,0,0,-261.63,31.42,-2.67E+02,9.75E-01,7.41E-05
52897-05-9,33M-4Ehexane,C10H22       ,PN,(CH3)5 (CH2)3 CH C ,142.2850037,0.7669,436.039,625.760,24.201,0.513,0.3568,0.058353,0.00570718,-2.0954E-06,0,0,-246.56,40.21,-2.60E+02,9.83E-01,6.96E-05
52897-06-0,34M-3Ehexane,C10H22       ,PN,(CH3)5 (CH2)3 CH C ,142.2850037,0.7665,435.260,624.650,24.201,0.511,0.3568,0.0582579,0.005707,-2.09504E-06,0,0,-251.75,40.84,-2.58E+02,9.78E-01,6.95E-05
52897-08-2,2234-Mhexane,C10H22       ,PN,(CH3)6 CH2 (CH)2 C ,142.2850037,0.7583,431.928,620.427,23.718,0.525,0.3440,0.083232,0.005701,-2.08757E-06,0,0,-253.88,44.56,-2.59E+02,9.97E-01,6.89E-05
52897-09-3,2235-Mhexane,C10H22       ,PN,(CH3)6 CH2 (CH)2 C ,142.2850037,0.7416,421.539,601.372,22.684,0.540,0.3569,0.12559,0.0056896,-2.07191E-06,0,0,-270.58,29.75,-2.75E+02,1.00E+00,6.86E-05
52897-10-6,2334-Mhexane,C10H22       ,PN,(CH3)6 CH2 (CH)2 C ,142.2850037,0.7728,437.769,633.150,24.821,0.514,0.3318,0.039034,0.00571098,-2.10065E-06,0,0,-254.01,42.22,-2.60E+02,9.91E-01,6.86E-05
52897-11-7,2335-Mhexane,C10H22       ,PN,(CH3)6 CH2 (CH)2 C ,142.2850037,0.7518,426.260,610.150,23.235,0.531,0.3513,0.095997,0.005697,-2.0816E-06,0,0,-259.36,39.04,-2.65E+02,9.97E-01,6.86E-05
52897-12-8,2344-Mhexane,C10H22       ,PN,(CH3)6 CH2 (CH)2 C ,142.2850037,0.7657,434.760,626.650,24.201,0.518,0.3366,0.0604179,0.005706,-2.09429E-06,0,0,-250.45,45.06,-2.57E+02,9.91E-01,6.86E-05
52897-15-1,2345-Mhexane,C10H22       ,PN,(CH3)6 (CH)4 ,142.2850037,0.7526,429.371,613.372,23.373,0.530,0.3631,0.099755,0.005697,-2.08235E-06,0,0,-258.03,38.66,-2.64E+02,9.90E-01,7.35E-05
52897-16-2,2M33Epentane,C10H22       ,PN,(CH3)5 (CH2)3 CH C ,142.2850037,0.7826,442.872,639.927,25.304,0.501,0.3444,0.0115189,0.0057176,-2.10923E-06,0,0,-241.95,47.70,-2.55E+02,9.92E-01,6.97E-05
52897-17-3,223M3Epentan,C10H22       ,PN,(CH3)6 (CH2)2 (C)2 ,142.2850037,0.7853,442.648,646.150,25.716,0.503,0.3056,0.000662826,0.005719,-2.11145E-06,0,0,-239.74,46.36,-2.59E+02,1.00E+00,6.46E-05
52897-18-4,224M3Epentan,C10H22       ,PN,(CH3)6 CH2 (CH)2 C ,142.2850037,0.7607,428.427,615.427,23.718,0.518,0.3441,0.0657309,0.00570298,-2.08982E-06,0,0,-241.50,47.32,-2.60E+02,1.01E+00,6.87E-05
52897-19-5,234M3Epentan,C10H22       ,PN,(CH3)6 CH2 (CH)2 C ,142.2850037,0.7805,442.622,642.427,25.441,0.506,0.3263,0.0195189,0.00571598,-2.10737E-06,0,0,-243.55,46.32,-2.58E+02,9.96E-01,6.88E-05
529-20-4,oTolaldehyde,C8H8O        ,Misc,CHO ACCH3 (ACH)4 AC ,120.151001,1.0413,474.150,694.000,36.700,0.386,0.4346,-0.36115,0.0061796,-0.000005253,2.27988E-09,-3.32405E-13,-60.88,,-6.03E+01,2.69E-01,3.83E-05
530-48-3,11DiPhnylC2=,C14H12       ,AD,(ACH)10 (AC)2 CH2=C ,180.2400055,1.0242,550.150,782.846,30.471,0.528,0.4975,-0.445661784,0.006412803,-4.57923E-06,1.2516E-09,0,256.41,,2.57E+02,3.70E-01,4.78E-05
53193-22-9,1-HEPTADECANETHIOL,C17H36S,MISC,,272.531,0.0000,621.160,786.010,12.880,1.042,0.7830,0.008076145,0.006007757,-3.30858E-06,7.19955E-10,0,-355.72,120.29,-3.46E-01,1.50E+00,2.16E-07
53193-23-0,1-NONADECANETHIOL,C19H40S,MISC,,300.585,0.0000,645.160,805.290,11.280,1.154,0.8070,0.003789278,0.006069165,-3.35013E-06,7.28047E-10,0,-396.94,137.11,-3.86E-01,1.68E+00,2.37E-07
5332-52-5,1Undecathiol,C11H24S      ,MISC,CH2SH CH3 (CH2)9 ,188.3690033,0.8485,530.598,716.500,20.500,0.706,0.5960,0.0509155,0.00561288,-2.96278E-06,6.1468E-10,-6.4207E-22,-232.04,69.83,-2.25E+02,9.41E-01,1.55E-04
533-98-2,12-BromoC4,C4H8Br2      ,Misc,(CH2)2 CH3 (Br)2 CH ,215.9190063,1.8035,439.497,659.299,47.200,0.377,0.4290,0.0806456,0.00209914,-1.45409E-06,4.07828E-10,1.57327E-21,-99.16,-13.14,-1.36E+02,3.92E-01,1.60E-05
534-22-5,2-M-Furan,C5H6O        ,Misc,,82.10160065,0.9138,337.000,527.000,47.200,0.247,0.2700,-0.11754,0.0047901,-2.63428E-06,1.03191E-09,0,-32.77,-2.36,-3.28E+01,-3.28E+01,-3.28E+01
5343-92-0,12-C5diol,C5H12O2      ,Misc,CH3 (CH2)3 CH (OH)2 ,104.1500015,0.9853,483.148,636.307,43.626,0.354,1.1358,0.0856948,0.00525018,-2.9669E-06,6.5194E-10,3.4034E-20,-450.99,,-4.51E+02,5.65E-01,0.00E+00
535-77-3,m-Cymene,C10H14       ,A,(CH3)2 (ACH)4 ACCH3 ACCH ,134.2220001,0.8655,448.226,666.205,29.385,0.478,0.2885,-0.3023,0.005765,-2.17307E-06,0,0,-29.31,,-2.98E+01,5.31E-01,5.74E-05
535-n-3,m-CYMENE,C10H14,MISC,,134.221,0.8570,448.230,657.000,29.300,0.485,0.3410,0.237332459,0.003679901,8.38989E-07,-2.51779E-09,8.77508E-13,-30.90,130.10,-3.40E-02,5.33E-01,5.21E-08
536-74-3,Ethynyl-BZ,C8H6         ,AU,AC (ACH)5 CH-=C ,102.1259995,0.9347,418.398,655.400,44.000,0.338,0.2390,-0.375451,0.00645158,-5.2566E-06,1.68764E-09,-1.52622E-21,327.25,361.75,3.26E+02,1.13E-01,1.85E-05
538-68-1,n-Pentyl-BZ,C11H16       ,A,(ACH)5 ACCH2 (CH2)3 CH3 ,148.2400055,0.8636,478.549,679.927,26.062,0.555,0.4376,-0.276671,0.00654254,-4.08636E-06,9.79428E-10,7.4715E-20,-33.84,152.93,-3.83E+01,6.23E-01,5.62E-05
538-93-2,i-BBenzene,C10H14       ,A,(CH3)2 CH (ACH)5 ACCH2 ,134.2220001,0.8577,445.937,650.372,30.499,0.478,0.3800,-0.27689,0.00576098,-2.16746E-06,0,0,-21.56,140.20,-2.22E+01,5.39E-01,5.44E-05
539-30-0,E-Bz-Ether,C9H12O       ,Misc,CH2O CH3 ACCH2 (ACH)5 ,136.1940002,0.9533,458.148,662.000,31.100,0.442,0.4332,-0.36495,0.0060818,-3.68622E-06,8.14248E-10,0,-114.99,33.70,-1.15E+02,4.77E-01,5.42E-05
539-82-2,ethyl pentanoate,C7H14O2,MISC,,130.187,,419.250,570.000,27.800,0.449,0.0000,0,0,0,0,0,-505.90,-303.50,,,
539-90-2,i-B-C4oate,C8H16O2      ,Misc,(CH3)3 (CH2)2 CH CH2COO ,144.2140045,0.8638,430.100,602.000,24.500,0.524,0.4773,0.0644893,0.0050311,-2.40845E-06,1.3022E-09,0,-531.01,,-5.34E+02,7.83E-01,4.46E-05
540-36-3,14-F-BZ,C6H4F2       ,Misc,(ACH)4 (ACF)2 ,114.0940018,0.6806,362.000,556.000,44.000,0.299,0.2990,-0.227677,0.00501844,-4.10199E-06,1.29364E-09,0,-307.39,-252.84,-3.09E+02,1.83E-01,1.20E-05
540-42-1,i-B-C3oate,C7H14O2      ,ES,(CH3)3 CH2 CH CH2COO ,130.1860046,0.8888,409.997,582.000,27.600,0.460,0.4597,-0.237499,0.00678396,-5.46516E-06,1.83028E-09,0,-510.37,-311.20,-5.10E+02,6.69E-01,6.11E-05
540-54-5,1-ClC3,C3H7Cl       ,Misc,CH3 CH2 CH2Cl ,78.54190063,0.8687,320.398,501.997,45.700,0.247,0.2350,-0.0426129,0.0046197,-3.19521E-06,9.48896E-10,0,-130.19,-52.51,-1.32E+02,2.63E-01,2.68E-05
540-61-4,AminoActNitl,C2H4N2       ,Misc,,56.06710052,0.8288,425.000,638.000,54.400,0.229,0.4657,0.58584,0.00247106,-1.62108E-07,-8.557E-10,3.16407E-13,117.00,,1.17E+02,1.75E-01,1.76E-05
540-63-6,12C2DiThiol,C2H6S2       ,Misc,(CH2SH)2 ,94.20140076,1.1300,419.200,663.000,53.600,0.209,0.2570,0.397712,0.00218324,-5.32185E-07,-1.82623E-10,7.5709E-14,-9.70,,-9.83E+00,1.14E-01,2.69E-05
540-67-0,M-E-Ether,C3H8O        ,Misc,CH3 CH2 CH3O ,60.09600067,0.7007,280.600,437.799,44.000,0.221,0.2440,0.31085,0.00447084,-1.7067E-06,1.49042E-10,0,-216.59,-117.13,-2.18E+02,3.26E-01,3.27E-05
540-72-7,NASCN,NASCN        ,Misc,,81.0719986,1.8525,600.000,925.000,64.000,0.177,1.9160,0.0697028,0.00363374,-4.31481E-06,2.56981E-09,-6.0327E-13,-735.20,,-7.35E+02,2.74E-01,0.00E+00
540-84-1,224-Mpentane,C8H18        ,PN,(CH3)5 CH2 CH C ,114.2320023,0.6956,372.388,543.960,25.676,0.468,0.3100,-0.364398,0.0085324,-6.84444E-06,3.43946E-09,-7.8103E-13,-224.29,14.21,-2.28E+02,7.91E-01,6.24E-05
540-88-5,tertBC2oate,C6H12O2      ,ACID,CH3COO C (CH3)3 ,116.1600037,0.8716,369.148,545.000,31.700,0.389,0.3396,-0.579922,0.00889916,-9.97443E-06,6.13544E-09,-1.53611E-12,-523.00,-339.00,-5.23E+02,6.04E-01,4.47E-05
5408-86-6,23-BromoC4,C4H8Br2      ,Misc,(CH3)2 (CH)2 (Br)2 ,215.9190063,1.7921,434.200,657.000,47.700,0.371,0.3970,0.0281307,0.00228884,-1.65056E-06,4.71224E-10,6.12535E-22,-102.09,-11.92,-1.39E+02,4.07E-01,1.52E-05
540-97-6,C12C1Cy6Silo,C12H36O6Si6  ,Misc,(CH3)12 (SIO)6 ,444.927002,0.9733,518.150,645.800,9.610,1.610,0.7462,-0.10551,0.0050206,-3.7419E-06,1.5126E-09,-2.83795E-13,-3512.00,,,2.35E+00,0.00E+00
541-02-6,DecMCPentSil,C10H30O5Si5  ,Misc,(CH3)10 (SIO)5 ,370.7730103,0.9649,484.100,619.150,11.600,1.216,0.6658,-0.0164204,0.00447952,-2.57966E-06,4.73132E-10,3.69126E-14,-2707.00,,,1.97E+00,0.00E+00
54105-66-7,1-CYCLOHEXYLUNDECANE,C17H34,MISC,,238.456,0.8170,586.260,761.740,14.290,0.921,0.6460,-0.298197571,0.007340977,-4.23265E-06,9.0826E-10,0,-357.44,115.31,-3.68E-01,1.59E+00,1.04E-07
541-05-9,6C1Cyc3Silox,C6H18O3Si3   ,Misc,(CH3)6 (SIO)3 ,222.4640045,0.9645,408.260,554.200,16.630,0.634,0.4742,0.023986,0.0043448,-2.4897E-06,4.8128E-10,1.9808E-14,-1568.00,0.00,,4.55E+00,0.00E+00
54-11-5,Nicotine,C10H14N2     ,Misc,,162.2400055,1.0103,518.650,754.598,35.010,0.484,0.4629,-0.29785,0.00517382,-2.20951E-06,0,0,-32.77,,-3.28E+01,-3.28E+01,-3.28E+01
541-31-1,3-methyl-1-butanethiol (isopentyl mercaptan),C5H12S,MISC,,104.216,,391.500,604.000,35.000,0.364,0.1910,0,0,0,0,0,-114.60,17.70,,,
541-41-3,EClC1oate,C3H5ClO2     ,Misc,HCOO CHCl CH3 ,108.5240021,1.1434,366.000,508.148,45.000,0.274,0.8350,0.290283,0.00235218,-5.43741E-07,-5.19788E-10,2.36334E-13,-458.00,-364.00,-4.57E+02,3.03E-01,3.27E-05
541-73-1,13-Cl-BZ,C6H4Cl2      ,Misc,(ACH)4 (ACCL)2 ,147.003006,1.2957,446.230,683.950,40.700,0.351,0.2790,-0.0704459,0.00372626,-3.34122E-06,1.51034E-09,-2.73613E-13,25.70,78.58,2.72E+01,1.59E-01,3.71E-05
542-10-9,EthylnDiAcet,C6H10O4      ,Misc,CH3 CH (CH3COO)2 ,146.1430054,1.0704,442.148,627.000,31.400,0.416,0.5263,0.170512,0.001781074,7.83834E-06,-1.39904E-08,6.59925E-12,-812.00,-632.00,-8.13E+02,5.94E-01,4.02E-05
542-55-2,i-B-Formate,C5H10O2      ,ACID,(CH3)2 CH2 CH HCOO ,102.1340027,0.8852,371.398,552.000,38.700,0.352,0.3960,0.19447,0.00395234,-1.40688E-06,-7.25188E-11,0,-436.28,-293.00,-4.35E+02,7.20E-01,5.26E-05
542-88-1,BisCl-M-Ethr,C2H4Cl2O     ,Misc,,114.9589996,1.3276,378.000,579.000,45.800,0.258,0.3239,0.020869,0.0032556,-0.000003219,1.6766E-09,-3.52065E-13,-241.00,-170.00,-2.40E+02,2.22E-01,4.06E-05
542-92-7,13-CC5==,C5H6         ,OC,CH2 (CH=CH)2 ,66.10160065,0.8052,314.648,507.000,51.500,0.225,0.1833,-0.38013,0.00623368,-3.68634E-06,6.18192E-10,1.1854E-13,199.53,172.57,2.00E+02,1.81E-01,2.79E-05
543-49-7,2-Heptanol,C7H16O       ,Misc,(CH3)2 (CH2)4 CH OH ,116.2030029,0.8222,432.350,587.000,30.300,0.432,0.7627,0.422269,0.00583288,-2.96635E-06,5.2028E-10,-4.13038E-22,-355.00,-143.00,-3.56E+02,7.47E-01,2.89E-05
543-59-9,1-ClC5,C5H11Cl      ,Misc,CH3 CH2Cl (CH2)3 ,106.5970001,0.8886,380.200,552.000,33.200,0.364,0.4370,-0.0178799,0.00502232,-3.11601E-06,7.8992E-10,2.26474E-22,-174.89,-36.68,-1.78E+02,4.57E-01,3.88E-05
544-13-8,GltarNitrile,C5H6N2       ,Misc,CH2 CH2CN ,94.11569977,0.9901,559.150,782.000,31.500,0.352,0.6033,0.201331,0.00421392,-2.59219E-06,6.56992E-10,-4.69947E-14,170.00,243.00,1.70E+02,2.38E-01,2.08E-05
544-40-1,B-Sulphide,C8H18S       ,MISC,CH2S (CH2)5 (CH3)2 ,146.2890015,0.8384,455.200,650.000,25.000,0.538,0.3940,0.0995078,0.00504744,-2.25148E-06,3.437E-10,2.33961E-21,-167.32,49.20,-1.61E+02,6.68E-01,1.25E-04
544-55-2,"1 ,3,5-CYCLOHEPTATRIENE",C7H8,MISC,,92.141,0.8820,388.650,593.900,43.340,0.312,0.3240,-0.463441899,0.007447065,-5.94122E-06,1.89123E-09,0,181.88,255.39,1.80E-01,2.46E-01,2.23E-08
544-63-8,nC14oicAcid,C14H28O2     ,Misc,CH3 (CH2)12 COOH ,228.375,0.8604,599.348,756.000,17.000,0.811,1.0254,-0.218066,0.00697604,-5.1612E-06,2.0491E-09,-3.48672E-13,-683.00,-288.00,-6.83E+02,1.33E+00,1.09E-04
544-76-3,n-C16,C16H34       ,PN,(CH3)2 (CH2)14 ,226.4290009,0.7762,559.940,717.000,14.206,0.940,0.7650,-0.0575014,0.00675266,-3.77025E-06,8.17016E-10,-1.23183E-23,-373.59,82.65,-3.82E+02,1.52E+00,1.10E-04
544-85-4,n-DotriC32,C32H66       ,MISC,(CH2)30 (CH3)2 ,450.8760071,0.8167,738.850,855.000,7.500,1.860,1.3765,-0.19171,0.0075016,-5.2746E-06,2.0018E-09,-3.2706E-13,-697.20,,-6.96E+02,3.00E+00,2.48E-04
5451-52-5,n-C10Formate,C11H22O2     ,Misc,(CH2)9 CH3 HCOO ,186.2940063,0.8779,506.000,672.000,19.900,0.697,0.7118,-0.31763,0.0076142,-6.7359E-06,3.352E-09,-7.0045E-13,-552.00,,-5.52E+02,1.04E+00,8.41E-05
5451-92-3,n-C9_Formate,C10H20O2     ,Misc,(CH2)8 CH3 HCOO ,172.2680054,0.8718,487.000,656.000,21.400,0.639,0.6504,-0.32289,0.0075978,-6.8025E-06,3.42036E-09,-7.185E-13,-531.30,,-5.31E+02,9.41E-01,7.69E-05
5454-79-5,ci3-M-CC6ol,C7H14O       ,Misc,CH3 (CH2)4 (CH)2 OH ,114.1880035,0.9211,441.148,617.000,37.700,0.414,0.7042,-0.42663,0.00683018,-3.49155E-06,5.14992E-10,0,-350.89,-152.43,-3.52E+02,1.07E+00,5.49E-05