CAS Number,Name,Formula,Type,UNIFAC,MW,SG6060,TB,Tc,Pc,Vc,OMEGA,CPA,CPB,CPC,CPD,CPE,HFORM25,GFORM25,GIBBSA,GIBBSB,GIBBSC
149-74-6,PhC1DiClSila,C7H8Cl2Si    ,Misc,,191.1309967,1.1858,477.350,689.000,28.700,0.508,0.4022,0.051259,0.0033284,-1.88883E-06,1.07904E-10,1.5772E-13,-336.81,,-3.37E+02,3.65E-01,0.00E+00
14979-39-6,4-M-3-C7ol,C8H18O       ,Misc,(CH3)3 (CH2)3 (CH)2 OH ,130.2310028,0.7862,442.000,623.500,28.600,0.490,0.5300,0.19285,0.00518226,-2.74833E-06,1.55052E-09,0,-371.24,,-3.72E+02,8.06E-01,6.85E-05
1502-38-1,Mcycoctane,C9H18        ,N,CH3 (CH2)7 CH ,126.2360001,0.8379,435.148,658.150,30.295,0.467,0.2270,-0.2285,0.0057506,-2.15366E-06,0,0,-122.75,,-1.21E+02,8.00E-01,1.03E-04
150-76-5,pMethoxyPHnl,C7H8O2       ,Misc,(ACH)4 AC ACOH CH3O ,124.1380005,1.1234,516.000,758.000,49.700,0.342,0.5405,-0.465524,0.00674816,-6.38913E-06,3.21473E-09,-6.67175E-13,-249.00,-139.00,-2.49E+02,3.59E-01,3.39E-05
1511-62-2,bromodiﬂuoromethane,CHBrF2,MISC,,130.92,,257.680,412.000,47.900,0.167,0.1720,0.206643416,0.00088087,-4.44531E-08,-7.176E-10,3.84837E-13,-429.50,-412.90,,,
151-56-4,Ethylenimine,C2H5N        ,Misc,CH2 CH2NH ,43.06840134,0.6517,327.000,537.000,68.500,0.173,0.2007,0.0163687,0.0048407,-2.00664E-06,2.12972E-10,0,123.42,177.99,1.22E+02,1.82E-01,2.05E-05
151-67-7,Halothane,C2HBrClF3    ,Misc,CF3 CHCl Br ,197.3820038,1.8936,323.350,521.000,39.200,0.296,0.0905,0.325575,0.000660738,3.88758E-07,-8.52196E-10,3.09027E-13,-705.00,-644.66,-7.05E+02,1.99E-01,1.06E-05
1520-42-9,112TriPHC2,C20H18       ,MISC,CH CH2 (AC)3 (ACH)15 ,258.3630066,1.1212,622.000,840.000,20.400,0.808,0.6116,-0.584188,0.00719364,-6.2109E-06,2.79937E-09,-5.20045E-13,251.90,,2.52E+02,6.68E-01,7.62E-05
1522-22-1,F6-AcetC3one,C3F6O        ,Misc,,208.0590057,1.4578,327.299,485.100,27.600,0.391,0.2780,-0.012767,0.00347488,-2.72082E-06,7.3728E-10,0,-32.77,,-3.28E+01,-3.28E+01,-3.28E+01
15306-27-1,1-C27=,C27H54       ,MISC,CH3 (CH2)24 CH2=CH ,378.7000122,0.8040,694.299,826.291,8.188,1.569,0.9558,0.0350778,0.00617584,-2.84366E-06,3.20833E-10,5.1829E-23,-475.18,,-4.75E+02,2.42E+00,1.96E-04
15403-89-1,E-Norbornene,C9H14        ,MISC,CH=C CH3 (CH2)4 (CH)2 ,122.2099991,0.8743,416.750,625.000,30.600,0.437,0.2605,-0.4605,0.0075904,-5.8623E-06,2.414E-09,-4.2125E-13,47.77,,4.81E+01,5.56E-01,5.82E-05
154-40-4,Spiro-C5,C5H8         ,OD,C (CH2)4 ,68.12000275,0.7470,312.200,499.700,52.100,0.236,0.2210,-0.609041,0.00790912,-5.61666E-06,1.60245E-09,4.69665E-21,67.96,,1.83E+02,2.67E-01,2.91E-05
1551-21-9,iP-M-Sulphid,C4H10S       ,MISC,CHS (CH3)3 ,90.18000031,0.8346,357.898,551.000,39.000,0.308,0.2590,0.151018,0.00449078,-2.32212E-06,5.70656E-10,4.75003E-21,-90.42,13.43,-8.59E+01,3.08E-01,8.34E-05
1559-35-9,C2=G-2C2C6Er,C10H22O2     ,Misc,CH2O OH (CH3)2 (CH2)6 CH ,174.2830048,0.8964,501.150,646.000,22.300,0.611,0.9827,-0.19239,0.0069862,-5.4201E-06,2.4212E-09,-5.023E-13,-532.40,,-5.32E+02,1.05E+00,8.81E-05
156-43-3,p-PHENETIDINE,C8H11NO,MISC,,137.181,1.0570,528.000,754.000,35.700,0.446,0.5530,0.006953514,-6.03502E-06,2.75665E-09,-5.40359E-13,0,-103.00,53.60,-1.07E-01,5.25E-01,3.69E-08
156-43-4,pPhenetidine,C8H11NO      ,Misc,CH3 AC (ACH)4 CH2O ACNH2 ,137.1790009,1.0660,527.000,754.000,35.700,0.446,0.5351,-0.483864,0.00718666,-6.53481E-06,3.19676E-09,-6.7623E-13,-103.00,,-1.03E+02,5.13E-01,4.43E-05
156-59-2,1-ci2-ClC2=,C2H2Cl2      ,Misc,CH=CH (Cl)2 ,96.94400024,1.2818,333.299,537.000,55.000,0.220,0.2171,0.119829,0.00243384,-2.16754E-06,7.47512E-10,0,1.88,19.66,-3.26E+00,7.50E-02,5.97E-06
156-60-5,1-tr2-ClC2=,C2H2Cl2      ,Misc,CH=CH (Cl)2 ,96.94400024,1.2614,321.898,512.000,48.100,0.220,0.1852,0.188679,0.00216756,-1.82074E-06,5.99064E-10,0,4.19,22.01,-7.72E-01,7.45E-02,5.83E-06
15687-27-1,Ibuprofen,C13H18O2     ,Misc,CH (CH3)3 (ACH)4 ACCH ACCH2 COOH ,206.2850037,1.0137,580.450,765.000,29.800,0.668,1.0101,-0.33561,0.0067564,-5.6019E-06,2.43012E-09,-4.34685E-13,-447.50,,-4.47E+02,8.58E-01,6.94E-05
156-87-6,3_Amino1C3ol,C3H9NO       ,Misc,(CH2)2 OH CH2NH2 ,75.11060333,0.9900,460.648,649.000,55.000,0.245,0.8273,0.100111,0.00532622,-3.26499E-06,9.56696E-10,-1.07663E-13,-221.00,-91.00,-2.21E+02,4.23E-01,4.04E-05
1569-69-3,CC6Mercaptan,C6H12S       ,Misc,(CH2)5 CHSH ,116.2229996,0.9556,431.953,664.000,39.700,0.355,0.2641,-0.766912,0.00790196,-6.60519E-06,3.14898E-09,-6.9845E-13,-96.02,,-9.72E+01,4.34E-01,4.99E-05
157-40-4,SPIROPENTANE,C5H8,MISC,,68.118,0.7350,312.190,499.740,52.130,0.237,0.2210,-0.609060748,0.007909363,-5.61687E-06,1.60251E-09,0,185.23,265.31,1.83E-01,2.67E-01,2.91E-08
1574-41-0,1-ci3-C5==,C5H8         ,OD,CH3 CH2=CH CH=CH ,68.1190033,0.6956,317.204,498.704,40.126,0.276,0.1869,0.043098,0.005654,-2.02484E-06,0,0,78.22,145.77,7.65E+01,2.23E-01,2.92E-05
15869-80-4,3-Eheptane,C9H20        ,PN,(CH3)3 (CH2)5 CH ,128.2590027,0.7301,416.148,590.549,24.014,0.511,0.4162,0.1584,0.005681,-2.06069E-06,0,0,-231.46,26.32,-2.35E+02,8.56E-01,6.80E-05
15869-85-9,5-Mnonane,C10H22       ,PN,(CH3)3 (CH2)6 CH ,142.2850037,0.7358,438.260,609.760,21.374,0.573,0.4578,0.182998,0.00568538,-2.0663E-06,0,0,-254.72,31.92,-2.59E+02,9.53E-01,7.25E-05
15869-86-0,4-Eoctane,C10H22       ,PN,(CH3)3 (CH2)6 CH ,142.2850037,0.7416,436.821,609.760,21.786,0.552,0.4550,0.1583,0.0056896,-2.07191E-06,0,0,-252.41,33.10,-2.57E+02,9.47E-01,7.34E-05
15869-87-1,22-Moctane,C10H22       ,PN,(CH3)4 (CH2)5 C ,142.2850037,0.7278,430.036,602.039,21.304,0.580,0.4207,0.196098,0.0056796,-2.05847E-06,0,0,-266.98,25.23,-2.73E+02,9.78E-01,6.72E-05
15869-89-3,25-Moctane,C10H22       ,PN,(CH3)4 (CH2)4 (CH)2 ,142.2850037,0.7335,431.648,603.148,21.511,0.569,0.4453,0.178199,0.0056838,-2.06405E-06,0,0,-261.71,26.94,-2.67E+02,9.61E-01,7.32E-05
15869-92-8,34-Moctane,C10H22       ,PN,(CH3)4 (CH2)4 (CH)2 ,142.2850037,0.7483,436.536,614.039,22.408,0.551,0.4196,0.132,0.005694,-2.07824E-06,0,0,-254.51,33.81,-2.59E+02,9.58E-01,7.33E-05
15869-93-9,35-Moctane,C10H22       ,PN,(CH3)4 (CH2)4 (CH)2 ,142.2850037,0.7400,432.539,606.372,21.856,0.555,0.4260,0.1553,0.0056886,-2.07041E-06,0,0,-259.91,28.95,-2.64E+02,9.58E-01,7.40E-05
15869-94-0,36-Moctane,C10H22       ,PN,(CH3)4 (CH2)4 (CH)2 ,142.2850037,0.7396,433.928,608.372,21.856,0.562,0.4255,0.1595,0.005688,-2.07002E-06,0,0,-259.24,30.67,-2.64E+02,9.64E-01,7.41E-05
15869-95-1,44-Moctane,C10H22       ,PN,(CH3)4 (CH2)5 C ,142.2850037,0.7377,430.648,606.927,22.063,0.548,0.4244,0.160099,0.0056868,-2.06813E-06,0,0,-262.20,27.78,-2.68E+02,9.69E-01,6.79E-05
15869-96-2,45-Moctane,C10H22       ,PN,(CH3)4 (CH2)4 (CH)2 ,142.2850037,0.7502,435.299,612.260,22.408,0.546,0.4216,0.121898,0.0056958,-2.0801E-06,0,0,-254.81,35.52,-2.59E+02,9.63E-01,7.34E-05
15870-10-7,2M-1-heptene,C8H16        ,N,(CH3)2 (CH2)4 CH2=C ,112.2080002,0.7241,392.427,573.150,27.151,0.464,0.3253,0.128,0.0056768,-2.05472E-06,0,0,-92.81,,-9.28E+01,6.15E-01,5.71E-05
15890-40-1,1ci2tr3-MCC5,C8H16        ,N,(CH3)3 (CH2)2 (CH)3 ,112.2080002,0.7741,390.648,579.817,28.979,0.416,0.2829,-0.081705,0.005712,-2.10173E-06,0,0,-112.67,,-1.12E+02,7.33E-01,7.76E-05
1589-47-5,2-MoxyC3ol-1,C4H10O2      ,Misc,C2H4O2 (CH3)2 ,90.12220001,0.9428,402.650,566.000,43.400,0.294,0.7192,-0.092471,0.0063304,-5.4354E-06,2.82048E-09,-6.747E-13,-404.30,,-4.04E+02,4.82E-01,4.21E-05
15896-91-0,3-ETHYL-4-METHYLHEPTANE,C10H22,MISC,,142.284,0.7470,436.160,615.500,22.800,0.533,0.4090,-0.329819235,0.007816761,-4.99782E-06,1.28672E-09,0,-250.50,37.57,-2.56E-01,9.61E-01,7.42E-08
1590-87-0,DiSilane,H6Si2        ,Misc,(SIH3)2 ,62.21860123,0.6462,259.000,432.000,51.300,0.223,0.0939,0.36077,0.0035826,-1.9371E-06,2.39676E-10,7.8685E-14,80.30,,8.03E+01,1.57E-01,0.00E+00
1599-67-3,1-C22=,C22H44       ,N,CH3 (CH2)19 CH2=CH ,308.5899963,0.7958,640.400,786.054,10.252,1.297,0.9244,0.0578863,0.00605128,-2.61329E-06,2.01297E-10,-6.3615E-22,-371.98,,-3.72E+02,1.95E+00,1.58E-04
1599-68-4,1-C21=,C21H42       ,N,CH3 (CH2)18 CH2=CH ,294.5490112,0.7937,628.200,776.697,10.776,1.240,0.9048,0.0636159,0.00600508,-2.54795E-06,1.70088E-10,-4.22516E-22,-351.34,,-3.51E+02,1.85E+00,1.52E-04
1613-46-3,BUTYL PROPYL SULFIDE,C7H16S,MISC,,132.263,0.8390,444.160,653.500,28.510,0.482,0.3180,0.117515859,0.004861828,-2.07465E-06,3.0118E-10,0,-145.94,39.87,-1.40E-01,5.69E-01,1.15E-07
1613-51-0,ThiaCC6,C5H10S       ,MISC,,102.1900024,0.9910,414.898,657.098,46.500,0.296,0.2200,-0.509295,0.0061857,-3.3147E-06,5.97188E-10,9.36195E-21,-63.26,53.05,-5.95E+01,3.52E-01,8.43E-05
16219-75-3,5-Eid=-2Norb,C9H12        ,A,CH=CH CH=C CH3 (CH2)2 (CH)2 ,120.1940002,0.9025,420.670,629.000,34.000,0.408,0.3141,-0.49084,0.007525,-6.2016E-06,2.73632E-09,-5.0655E-13,146.73,,1.47E+02,4.25E-01,4.96E-05
16262-48-9,p-i-PStyrene,C11H12       ,MISC,CH3 CH2=C CH2=CH (AC)2 (ACH)4 ,144.2160034,0.9405,515.000,741.000,27.800,0.531,0.4068,-0.3858,0.0075042,-0.000007221,3.7068E-09,-7.731E-13,177.50,,1.78E+02,3.96E-01,4.13E-05
1630-77-9,"trans-1 ,2-DIFLUOROETHENE",C2H2F2,MISC,,64.035,1.0230,247.860,394.670,47.690,0.164,0.2100,0.193675334,0.003154837,-2.3723E-06,7.01023E-10,0,-322.17,-299.32,-3.23E-01,7.51E-02,8.37E-09
1630-78-0,"cis-1,2-DIFLUOROETHENE",C2H2F2,MISC,,64.035,1.0230,247.860,394.670,47.690,0.164,0.2100,0.113219333,0.003394394,-2.63996E-06,8.03998E-10,0,-322.17,-299.49,-3.23E-01,7.46E-02,9.10E-09
1632-16-2,2-E-1-C6=,C8H16        ,N,CH2=C (CH2)4 (CH3)2 ,112.2080002,0.7320,393.148,572.000,30.600,0.399,0.3799,-0.31389,0.00798478,-6.39882E-06,2.8927E-09,-5.6557E-13,-92.81,91.28,-9.23E+01,6.12E-01,6.40E-05
1634-04-4,MTBE,C5H12O       ,Misc,(CH3)3 C CH3O ,88.15000153,0.7465,328.299,496.398,33.700,0.330,0.2690,0.0287654,0.00583028,-2.94691E-06,4.88448E-10,0,-293.09,-125.44,-2.96E+02,5.58E-01,4.21E-05
1634-09-9,1BNaphthalen,C14H16       ,AMR,CH3 (CH2)2 ACCH2 (AC)2 (ACH)7 ,184.279007,0.9747,562.489,781.450,24.975,0.646,0.5320,-0.33039,0.00646684,-4.55106E-06,1.2866E-09,0,53.05,240.08,4.91E+01,6.24E-01,5.03E-05
1636-39-1,diCycloC5,C10H18       ,N,(CH)2 (CH2)8 ,138.2519989,0.7373,445.739,612.528,25.354,0.548,0.6013,-0.659678,0.00996728,-9.80955E-06,3.91457E-09,9.0877E-20,-37.05,,-3.69E+01,9.22E-01,0.00E+00
1638-26-2,11Mcycpentan,C7H14        ,N,(CH3)2 (CH2)4 C ,98.18900299,0.7583,360.631,547.039,34.474,0.362,0.2740,-0.3361,0.006639,-2.66219E-06,-3.57018E-10,3.67988E-13,-138.39,39.04,-1.43E+02,5.92E-01,5.22E-05
1639-09-4,1Heptanthiol,C7H16S       ,MISC,CH2SH CH3 (CH2)5 ,132.2590027,0.8470,450.100,645.000,27.500,0.481,0.4190,0.109602,0.00507196,-2.49167E-06,4.72132E-10,5.62915E-21,-149.62,36.19,-1.44E+02,5.70E-01,1.13E-04
1640-89-7,Ecyclopentan,C7H14        ,N,CH3 (CH2)5 CH ,98.18900299,0.7703,376.617,569.520,33.976,0.374,0.2826,-0.677,0.0084466,-6.3714E-06,2.79978E-09,-5.64875E-13,-127.19,45.07,-1.31E+02,5.71E-01,5.48E-05
1656-48-0,BisCyEEther,C6H8N2O      ,Misc,CH2 CH2O CH2CN ,124.1380005,1.0537,579.000,783.000,28.300,0.377,0.7775,0.271941,0.00368162,-1.49979E-06,-2.86878E-10,2.45707E-13,20.40,149.00,2.04E+01,4.23E-01,2.82E-05
16746-86-4,23M1C6=,C8H16        ,N,CH2=C (CH3)3 CH (CH2)2 ,112.2109985,0.7257,383.648,561.000,27.600,0.445,0.3251,-0.0877335,0.0063254,-2.98624E-06,2.66215E-10,6.9554E-14,-97.70,,-9.71E+01,6.16E-01,6.69E-05
16747-25-4,223-Mhexane,C9H20        ,PN,(CH3)5 (CH2)2 CH C ,128.2590027,0.7327,406.759,588.049,24.926,0.498,0.3320,0.127089,0.005683,-2.0633E-06,0,0,-241.39,24.52,-2.47E+02,8.88E-01,6.25E-05
16747-26-5,224-Mhexane,C9H20        ,PN,(CH3)5 (CH2)2 CH C ,128.2590027,0.7190,399.700,573.648,23.811,0.507,0.3210,0.165099,0.005673,-2.0495E-06,0,0,-243.39,22.51,-2.49E+02,8.89E-01,6.32E-05
16747-28-7,233-Mhexane,C9H20        ,PN,(CH3)5 (CH2)2 CH C ,128.2590027,0.7408,410.838,596.150,25.534,0.491,0.3299,0.104596,0.00568898,-2.07116E-06,0,0,-239.28,25.90,-2.44E+02,8.85E-01,6.25E-05
16747-30-1,244-Mhexane,C9H20        ,PN,(CH3)5 (CH2)2 CH C ,128.2590027,0.7271,403.808,581.650,24.318,0.500,0.3427,0.142698,0.005679,-2.05772E-06,0,0,-239.95,23.89,-2.46E+02,8.86E-01,6.32E-05
16747-31-2,334-Mhexane,C9H20        ,PN,(CH3)5 (CH2)2 CH C ,128.2590027,0.7491,413.630,602.348,26.243,0.484,0.3265,0.0782828,0.005695,-2.07899E-06,0,0,-235.39,27.07,-2.42E+02,8.80E-01,6.33E-05
16747-32-3,22M3Epentane,C9H20        ,PN,(CH3)5 (CH2)2 CH C ,128.2590027,0.7381,406.989,590.549,25.534,0.486,0.3301,0.106397,0.005687,-2.06852E-06,0,0,-231.29,29.12,-2.44E+02,8.94E-01,6.38E-05
16747-33-4,23M3Epentane,C9H20        ,PN,(CH3)5 (CH2)2 CH C ,128.2590027,0.7583,417.850,606.848,26.851,0.477,0.3467,0.051151,0.005701,-2.08757E-06,0,0,-233.84,31.17,-2.39E+02,8.86E-01,6.31E-05
16747-38-9,2334Mpentane,C9H20        ,PN,(CH3)6 (CH)2 C ,128.2590027,0.7579,414.717,609.049,26.951,0.481,0.3130,0.0454099,0.005701,-2.08721E-06,0,0,-236.39,38.30,-2.42E+02,9.05E-01,6.24E-05
16747-42-5,2245-Mhexane,C10H22       ,PN,(CH3)6 CH2 (CH)2 C ,142.2850037,0.7389,421.049,598.539,22.201,0.544,0.3643,0.135,0.0056876,-2.06927E-06,0,0,-266.94,32.59,-2.72E+02,1.00E+00,6.86E-05
16747-44-7,22334Mpentan,C10H22       ,PN,(CH3)7 CH (C)2 ,142.2850037,0.7831,439.226,643.927,25.855,0.508,0.2898,0.0015255,0.0057178,-2.10962E-06,0,0,-241.29,57.36,-2.53E+02,1.02E+00,6.48E-05
16747-45-8,22344Mpentan,C10H22       ,PN,(CH3)7 CH (C)2 ,142.2850037,0.7699,432.459,627.369,23.994,0.521,0.3044,0.03871,0.005709,-2.09804E-06,0,0,-247.73,60.25,-2.53E+02,1.03E+00,6.34E-05
16747-50-5,1-M-1-ECC5,C8H16        ,N,(CH3)2 (CH2)5 C ,112.2080002,0.7848,394.678,592.039,29.889,0.422,0.2500,-0.11579,0.005719,-2.11109E-06,0,0,-105.58,50.67,-1.04E+02,7.42E-01,8.09E-05
1678-91-7,Ecyclohexane,C8H16        ,N,CH3 (CH2)6 CH ,112.2080002,0.7914,404.944,609.260,30.336,0.448,0.2430,-0.116097,0.005723,-2.11667E-06,0,0,-171.89,39.25,-1.78E+02,7.10E-01,5.12E-05
1678-92-8,n-Pcychexane,C9H18        ,N,CH3 (CH2)7 CH ,126.2360001,0.7968,429.894,639.260,28.068,0.477,0.2580,-0.0753988,0.00572638,-2.12117E-06,0,0,-193.39,47.32,-2.00E+02,8.09E-01,5.62E-05
1678-93-9,n-Bcychexane,C10H20       ,N,CH3 (CH2)8 CH ,140.2680054,0.8022,454.131,667.039,31.509,0.534,0.3620,-0.0405689,0.0057298,-2.12564E-06,0,0,-213.29,56.44,-2.20E+02,9.06E-01,6.23E-05
16789-46-1,2M-3Ehexane,C9H20        ,PN,(CH3)4 (CH2)3 (CH)2 ,128.2590027,0.7369,411.148,588.250,24.521,0.497,0.3767,0.120498,0.005686,-2.06741E-06,0,0,-234.64,26.19,-2.38E+02,8.63E-01,6.80E-05
1678-98-4,i-Bcychexane,C10H20       ,N,(CH3)2 (CH2)6 (CH)2 ,140.2680054,0.7981,444.437,658.705,31.206,0.530,0.3190,-0.0464649,0.005727,-2.12231E-06,0,0,-148.67,,-1.47E+02,9.14E-01,9.24E-05
1679-07-8,CYCLOPENTANETHIOL,C5H10S,MISC,,102.194,0.9610,405.330,629.000,42.700,0.311,0.2620,-0.3560483,0.005692506,-3.46977E-06,8.2817E-10,0,-47.91,57.03,-4.30E-02,3.07E-01,9.38E-08
1679-09-0,2-METHYL-2-BUTANETHIOL,C5H12S,MISC,,104.21,0.8210,372.280,566.000,32.700,0.359,0.2430,0.033298148,0.005408118,-3.2614E-06,7.6152E-10,0,-127.03,9.20,-1.23E-01,4.15E-01,8.82E-08
1679-64-7,MTerephtlate,C9H8O4       ,Misc,(ACH)4 (AC)2 HCOO CH3COO ,180.1600037,1.0089,538.150,743.025,34.439,0.396,0.7315,0.207647,0.00320226,-1.20647E-06,-9.71344E-11,-3.30877E-21,-539.11,,-5.39E+02,5.09E-01,0.00E+00
16883-48-0,1tr2ci4-MCC5,C8H16        ,N,(CH3)3 (CH2)2 (CH)3 ,112.2080002,0.7510,382.444,570.927,28.116,0.416,0.2462,-0.0072253,0.005696,-2.08085E-06,0,0,-112.67,,-1.12E+02,7.37E-01,7.04E-05
16900-07-5,BUTYL-OCTYL-5ULFIDE,C12H26S,MISC,,202.397,0.8420,552.160,733.680,18.060,0.762,0.6310,0.047723039,0.005557395,-2.75641E-06,5.20512E-10,0,-249.74,81.17,-2.42E-01,1.03E+00,1.67E-07
16967-04-7,BUTYL-HEXYL-SULFIDE,C10H22S,MISC,,174.344,0.8410,513.160,701.030,21.410,0.650,0.5510,0.069368605,0.005344262,-2.54646E-06,4.52829E-10,0,-208.53,64.31,-2.01E-01,8.47E-01,1.46E-07
16980-85-1,1-C25=,C25H50       ,N,CH3 (CH2)22 CH2=CH ,350.6480103,0.8011,674.299,811.559,8.908,1.464,0.9567,0.0430685,0.00612808,-2.76087E-06,2.78625E-10,-1.67929E-22,-433.90,,-4.34E+02,2.23E+00,1.81E-04
17059-55-1,2-ETHYL-7 -METHYLNAPHTHALENE,C13H14,MISC,,170.254,0.0000,543.160,766.560,27.130,0.578,0.4880,-0.464247536,0.007470015,-6.60366E-06,2.44576E-09,0,60.92,220.20,5.85E-02,5.27E-01,4.63E-08
1708-29-8,25DiHyFuran,C4H6O        ,Misc,CH2 CH=CH FCH2O ,70.09100342,0.9506,339.000,542.000,55.000,0.216,0.2292,-0.138793,0.00466002,-1.41872E-06,-8.86324E-10,4.918E-13,-108.78,-39.50,-1.09E+02,2.23E-01,3.01E-05
1717-00-6,R-141b,C2H3Cl2F     ,Misc,CCl2F CH3 ,116.9496002,1.2339,305.150,478.850,43.400,0.253,0.2211,0.207743,0.00224684,-1.5911E-06,4.08428E-10,0,-339.70,-276.20,-3.21E+02,2.38E-01,0.00E+00
17301-94-9,4-Mnonane,C10H22       ,PN,(CH3)3 (CH2)6 CH ,142.2850037,0.7354,438.872,610.539,21.374,0.575,0.4589,0.1858,0.00568518,-2.06591E-06,0,0,-254.72,30.21,-2.59E+02,9.47E-01,7.25E-05
17302-01-1,3M-3Eheptane,C10H22       ,PN,(CH3)4 (CH2)5 C ,142.2850037,0.7534,436.927,620.039,23.096,0.532,0.4100,0.112988,0.005696,-2.0831E-06,0,0,-257.23,33.05,-2.63E+02,9.70E-01,6.86E-05
17302-02-2,33-Ehexane,C10H22       ,PN,(CH3)4 (CH2)5 C ,142.2850037,0.7644,439.428,627.927,24.131,0.510,0.3757,0.075628,0.0057056,-2.09318E-06,0,0,-258.48,41.05,-2.58E+02,9.79E-01,6.95E-05
17302-04-4,4M-4Eheptane,C10H22       ,PN,(CH3)4 (CH2)5 C ,142.2850037,0.7542,433.928,615.872,23.096,0.525,0.4093,0.1034,0.0056986,-2.08385E-06,0,0,-256.94,,-2.63E+02,9.70E-01,6.86E-05
17302-4-4,4-ETHYL-4-METHYLHEPTANE,C10H22,MISC,,142.284,0.7470,433.960,615.700,23.100,0.525,0.3900,-0.310765792,0.007997386,-5.30193E-06,1.42665E-09,0,-256.94,33.05,-2.63E-01,9.70E-01,6.86E-08
1741-83-9,MPentylSulph,C6H14S       ,MISC,CH3S (CH2)4 CH3 ,118.2360001,0.8481,401.200,587.000,31.600,0.426,0.3760,0.14505,0.0047746,-2.20229E-06,3.74838E-10,3.59577E-21,-122.75,35.10,-1.17E+02,4.80E-01,1.03E-04
1746-23-2,p-t-BStyrene,C12H16       ,A,C (CH3)3 CH2=CH (AC)2 (ACH)4 ,160.2590027,0.8919,500.000,709.000,24.800,0.594,0.4216,-0.46101,0.0077746,-6.6966E-06,3.04428E-09,-5.7425E-13,41.87,,4.19E+01,6.33E-01,5.76E-05
1758-88-9,2EpXylene,C10H14       ,A,(ACCH3)2 ACCH2 (ACH)3 CH3 ,134.2200012,0.8815,459.980,663.000,28.800,0.482,0.4114,-0.248484,0.00654784,-4.71003E-06,1.78435E-09,-2.88613E-13,-32.18,127.30,-3.14E+01,5.14E-01,5.98E-05
1759-58-6,1-tr3-MCC5,C7H14        ,N,(CH3)2 (CH2)3 (CH)2 ,98.18900299,0.7526,364.872,553.148,34.474,0.362,0.2633,-0.3271,0.0066322,-2.70507E-06,-3.09214E-10,3.54657E-13,-133.50,41.42,-1.38E+02,5.84E-01,5.25E-05
1759-81-5,4-M-Cyc-C5=,C6H10        ,OD,(CH2)2 CH3 CH=CH CH ,82.145401,0.7741,338.820,527.000,41.300,0.303,0.2357,-0.22063,0.0054036,-1.34454E-06,-1.03868E-09,4.92685E-13,13.54,121.59,1.42E+01,3.39E-01,5.17E-05
17699-86-4,1-M-4-V-CC6=,C9H14        ,MISC,CH2=CH CH=C CH3 (CH2)3 CH ,122.2099991,0.8603,425.150,626.000,31.200,0.437,0.3445,-0.56762,0.0081602,-6.7047E-06,2.9744E-09,-5.5655E-13,36.42,,3.64E+01,5.47E-01,5.49E-05
1795-15-9,1-CC6-Octane,C14H28       ,N,(CH2)12 CH CH3 ,196.3800049,0.8173,536.799,723.598,18.000,0.752,0.5380,-0.33844,0.00740958,-4.21743E-06,8.73496E-10,2.92444E-21,-295.60,90.08,-3.04E+02,1.29E+00,8.62E-05
1795-16-0,n-C10-CC6,C16H32       ,N,(CH2)14 CH3 CH ,224.4299927,0.8226,570.750,751.250,16.500,0.858,0.6627,0.56318,0.002579,0.000004611,-5.822E-09,1.8184E-12,-339.40,106.90,-3.39E+02,1.45E+00,1.24E-04
1795-17-1,n-Dodecylcyclohexane,C18H36,MISC,,252.482,0.8190,600.860,772.830,13.310,0.977,0.6750,-0.291739609,0.007348247,-4.28149E-06,9.42562E-10,0,-378.07,123.72,-3.89E-01,1.68E+00,1.10E-07
1795-18-2,n-Tetradecylcyclohexane,,MISC,,280.53,,,,,,,FALSE,FALSE,FALSE,FALSE,FALSE,,,,,
1795-20-6,n-Octylcyclopentane,C13H26,MISC,,182.348,0.8010,516.860,702.060,19.140,0.705,0.5260,-0.390275737,0.007583851,-4.80976E-06,1.26944E-09,0,-250.71,95.06,-2.58E-01,1.15E+00,9.09E-08
1795-21-7,n-Decylcyclopentane,,MISC,,210.4,,,,,,,FALSE,FALSE,FALSE,FALSE,FALSE,,,,,
1795-22-8,n-Tetradecylcyclopentane,C19H38,MISC,,266.509,0.8160,612.160,772.000,11.200,1.041,0.7890,-0.294691736,0.007364854,-4.57883E-06,1.16983E-09,0,-374.38,145.48,-3.85E-01,1.74E+00,1.27E-07
1795-26-2,1c3t5MCC6,C9H18        ,N,(CH3)3 (CH2)3 (CH)3 ,126.2360001,0.7838,413.700,602.200,26.500,0.470,0.3330,-0.48508,0.0075026,-3.91317E-06,6.50888E-10,6.2441E-21,-206.55,39.87,-2.13E+02,8.28E-01,5.86E-05
1795-27-3,1c3c5MCC6,C9H18        ,N,(CH2)3 (CH3)3 (CH)3 ,126.2360001,0.7751,411.700,607.900,26.500,0.470,0.2740,-0.473154,0.00735946,-3.50292E-06,4.30712E-10,2.17641E-21,-215.39,33.89,-2.22E+02,8.40E-01,5.58E-05