CAS Number,Name,Formula,Type,UNIFAC,MW,SG6060,TB,Tc,Pc,Vc,OMEGA,CPA,CPB,CPC,CPD,CPE,HFORM25,GFORM25,GIBBSA,GIBBSB,GIBBSC
36653-82-4,1-Hxadecanol,C16H34O      ,Misc,CH3 (CH2)15 OH ,242.4450073,0.8188,585.150,750.000,15.000,0.907,0.7480,0.20949,0.00557984,-2.63679E-06,3.70564E-10,0,-514.21,-53.01,-5.34E+02,1.58E+00,1.11E-04
367-11-3,12-F-BZ,C6H4F2       ,Misc,(ACH)4 (ACF)2 ,114.0859985,1.1645,364.700,554.500,40.700,0.299,0.3200,-0.214732,0.0049013,-3.8763E-06,1.19694E-09,2.30795E-21,-294.50,-242.00,-2.96E+02,1.77E-01,1.16E-05
3682-91-5,TriAcetoneOL,C9H18O3      ,Misc,CH2CO (OH)2 (CH3)4 (CH)2 C ,174.2400055,0.8459,486.000,618.000,27.500,0.563,1.3495,-0.019488,0.0063054,-5.5425E-06,2.91088E-09,-7.0455E-13,-575.23,,-5.75E+02,1.10E+00,6.35E-05
3698-89-3,DECYL-METHYL-5ULFIDE,C11H24S,MISC,,188.371,0.8410,533.160,717.910,19.630,0.706,0.5920,0.059733186,0.005554995,-2.88818E-06,5.83476E-10,0,-225.81,77.15,-2.18E-01,9.44E-01,1.55E-07
3698-93-9,OCTYL-PROPYL-SULFIDE,C11H24S,MISC,,188.371,0.8410,533.160,717.910,19.630,0.706,0.5920,0.057190332,0.005461563,-2.66363E-06,4.91095E-10,0,-228.28,73.60,-2.21E-01,9.40E-01,1.56E-07
3698-94-0,ETHYL-OCTYL-SULFIDE,C10H22S,MISC,,174.344,0.8410,513.160,701.030,21.410,0.650,0.5510,0.054782499,0.005469532,-2.78048E-06,5.44814E-10,0,-207.65,65.61,-2.00E-01,8.48E-01,1.46E-07
3698-95-1,METHYL-OCTYL-SULFIDE,C9H205,MISC,,160.317,0.8400,491.160,681.560,23.450,0.594,0.5080,0.085349651,0.005323016,-2.68343E-06,5.2108E-10,0,-184.60,60.33,-1.78E-01,7.58E-01,1.35E-07
37160-61-5,sec-BUTYL GLYCOLATE ,C6H1203,MISC,,132.16,0.0000,450.650,0.000,0.000,#VALUE!,0.0000,0,0,0,0,0,0.00,0.00,,,
372-18-9,m-DIFLUOROBENZENE,C6H4F2,MISC,,114.094,1.1620,363.660,552.940,40.670,0.300,0.3200,-0.234385682,0.005010781,-4.06866E-06,1.27071E-09,0,-309.99,-257.02,-3.11E-01,1.78E-01,1.24E-08
3726-45-2,1234-T-M-CC6,C10H20       ,N,(CH3)4 (CH2)2 (CH)4 ,140.2689972,0.8265,449.200,642.000,25.700,0.528,0.4016,-0.70705,0.0087832,-6.2457E-06,2.28724E-09,-3.4702E-13,-241.90,,-2.43E+02,9.09E-01,7.87E-05
374-07-2,11ClTetraFC2,C2Cl2F4      ,Misc,CCl3 CCl2F ,170.9210052,1.4893,276.170,418.549,33.000,0.294,0.2533,0.115486,0.00270132,-3.23976E-06,1.79819E-09,-3.79026E-13,-926.80,-845.40,-9.26E+02,2.68E-01,1.31E-05
3741-00-2,n-Pentylcyclopentane,C10H20,MISC,,140.268,0.7870,453.760,647.490,25.050,0.537,0.3980,-0.480088117,0.007786523,-5.01896E-06,1.35876E-09,0,-188.91,69.79,-1.95E-01,8.62E-01,7.30E-08
375-96-2,eicosaﬂuorononane,C9F20,MISC,,488.067,,523.900,15.600,590.600,0.000,0.0000,0.062976718,0.003699273,-4.71959E-06,3.0146E-09,-7.81715E-13,-4210.36,-3834.38,,,
3769-23-1,4M1C6=,C7H14        ,N,CH2=CH CH (CH3)2 (CH2)2 ,98.1882019,0.7029,359.880,534.000,30.400,0.398,0.3024,-0.233364,0.0072707,-4.83018E-06,1.6243E-09,-2.52226E-13,-66.70,92.30,-6.62E+01,5.14E-01,5.77E-05
3788-32-7,i-Bcycpentan,C9H18        ,N,(CH3)2 (CH2)5 (CH)2 ,126.2360001,0.7844,421.121,625.648,27.358,0.478,0.2577,-0.0464729,0.0057186,-2.11073E-06,0,0,-128.03,,-1.27E+02,8.20E-01,8.33E-05
38433-80-6,3Hx2C1C3ionA,C4H8O2       ,Misc,CH CH2 CH3 OH CHO ,88.10630035,0.9927,440.000,615.000,45.900,0.281,0.7928,-0.13366,0.0055502,-4.1214E-06,1.59464E-09,-2.46005E-13,-363.40,,-3.63E+02,3.55E-01,3.85E-05
3875-51-2,i-Pcycpentan,C8H16        ,N,(CH3)2 (CH2)4 (CH)2 ,112.2080002,0.7801,399.578,600.927,29.991,0.422,0.2400,-0.0830469,0.0057158,-2.10698E-06,0,0,-107.39,,-1.06E+02,7.23E-01,7.77E-05
3875-52-3,tert-BCC5,C9H18,N,(CH3)4 (CH2)4 (CH)2 ,126.24,0.7538,156.600,348.110,27.230,0.483,0.3280,FALSE,FALSE,FALSE,FALSE,FALSE,,,,,
3877-15-4,M-P-Sulphide,C4H10S       ,MISC,CH2S CH2 (CH3)2 ,90.18000031,0.8478,368.700,562.000,38.500,0.313,0.2850,0.177544,0.00434608,-2.05122E-06,3.63527E-10,-1.09879E-21,-81.76,18.41,-7.71E+01,2.95E-01,8.41E-05
38842-05-6,1235-E-Benz,C14H22       ,A,(ACCH2)4 (ACH)3 (CH3)4 ,190.3289948,0.8885,522.000,708.000,20.700,0.703,0.5940,-0.11711,0.006585,-0.000004485,1.48476E-09,-1.91765E-13,-125.40,154.56,-1.25E+02,9.13E-01,8.03E-05
392-56-3,perF-BZ,C6F6         ,Misc,(ACF)6 ,186.0540009,1.6279,353.398,516.700,32.000,0.335,0.3960,0.195118,0.0028327,-2.4455E-06,7.83068E-10,0,-957.29,0.00,-9.57E+02,2.65E-01,-1.16E-05
40289-98-3,METHYL-OCTADECYL-SULFIDE,C19H40S,MISC,,300.585,0.0000,659.160,821.750,10.930,1.154,0.7940,0.004760717,0.006053529,-3.33317E-06,7.22225E-10,0,-390.70,144.39,-3.80E-01,1.69E+00,2.38E-07
4032-86-4,33-Mheptane,C9H20        ,PN,(CH3)4 (CH2)4 C ,128.2590027,0.7290,410.169,588.549,24.318,0.506,0.3599,0.1495,0.00568,-2.05958E-06,0,0,-241.54,,-2.47E+02,8.72E-01,6.25E-05
4032-92-2,244-Mheptane,C10H22       ,PN,(CH3)5 (CH2)3 CH C ,142.2850037,0.7377,424.148,600.372,22.201,0.541,0.4312,0.1464,0.0056868,-2.06813E-06,0,0,-261.33,32.43,-2.67E+02,9.83E-01,6.88E-05
4032-93-3,236-Mheptane,C10H22       ,PN,(CH3)5 (CH2)2 (CH)3 ,142.2850037,0.7381,429.148,604.260,21.856,0.560,0.4406,0.15559,0.005687,-2.06852E-06,0,0,-263.55,28.53,-2.69E+02,9.74E-01,7.34E-05
4032-94-4,24-Moctane,C10H22       ,PN,(CH3)4 (CH2)4 (CH)2 ,142.2850037,0.7297,429.039,599.427,21.374,0.566,0.4403,0.187098,0.005681,-2.0603E-06,0,0,-262.00,31.80,-2.62E+02,9.60E-01,7.26E-05
4038-04-4,3-Eth-1-C5=,C7H14        ,N,(CH3)2 (CH2)2 CH2=CH CH ,98.1882019,0.7010,357.260,530.000,30.300,0.398,0.3019,-0.30043,0.0077564,-5.9331E-06,2.5274E-09,-4.64365E-13,-64.10,,-6.36E+01,5.20E-01,5.79E-05
4048-33-3,6AminoC6ol,C6H15NO      ,Misc,(CH2)5 OH CH2NH2 ,117.1910019,0.7870,496.148,665.000,34.400,0.436,0.9689,0.061279,0.0057822,-3.51102E-06,1.10329E-09,-1.85863E-13,-283.00,-66.50,-2.83E+02,7.06E-01,6.22E-05
4049-81-4,2M-15-C6==,C7H12        ,OD,CH3 (CH2)2 CH2=CH CH2=C ,96.17250061,0.7237,361.260,553.148,32.521,0.390,0.2074,0.050426,0.0056766,-2.05436E-06,0,0,53.26,,5.25E+01,4.01E-01,3.52E-05
4050-45-7,tr2-Hexene,C6H12        ,N,(CH3)2 (CH2)2 CH=CH ,84.16190338,0.6818,341.027,516.481,32.688,0.351,0.2420,0.169898,0.005643,-2.00954E-06,0,0,-53.93,76.44,-5.62E+01,4.30E-01,4.50E-05
4062-60-6,NN-t-B-E=-Am,C10H24N2     ,Misc,(CH2N)2 (CH3)6 (C)2 ,172.3139954,0.7203,462.150,625.000,21.600,0.686,0.6278,-0.4841,0.0088016,-7.5759E-06,3.52768E-09,-6.864E-13,-188.00,,-1.89E+02,1.26E+00,8.41E-05
4109-96-0,DiClSilane,Cl2H2Si      ,Misc,,101.0070038,1.2222,281.450,459.000,45.900,0.237,0.0985,0.17957,0.00199254,-2.13336E-06,1.14048E-09,-2.41265E-13,-320.49,,-3.20E+02,8.57E-02,0.00E+00
4110-44-5,33-Moctane,C10H22       ,PN,(CH3)4 (CH2)5 C ,142.2850037,0.7424,434.372,612.260,22.201,0.557,0.4265,0.149999,0.00569,-2.07263E-06,0,0,-262.20,27.78,-2.68E+02,9.69E-01,6.79E-05
4110-50-3,E-P-Sulphide,C5H12S       ,MISC,CH2S (CH2)2 (CH3)2 ,104.2080002,0.8420,391.700,582.000,33.700,0.370,0.3290,0.150713,0.00451362,-1.90854E-06,2.71163E-10,-2.52447E-21,-104.50,23.56,-9.96E+01,3.85E-01,9.42E-05
41947-84-6,ETHYL-OCTADECYL-SULFIDE,C201-142S,MISC,,314.612,0.0000,671.160,832.330,10.270,1.210,0.7950,-0.008616963,0.006102437,-3.2281E-06,6.75276E-10,0,-413.76,149.70,-4.02E-01,1.78E+00,2.49E-07
420-12-2,ThiaCC3,C2H4S        ,Misc,CH2S CH2 ,60.11980057,1.0190,328.080,547.000,67.800,0.167,0.1610,0.42277,0.00092664,3.4755E-06,-4.1644E-09,1.3215E-12,82.00,96.90,8.23E+01,4.12E-02,2.42E-05
420-26-8,2-FLUOROPROPANE,C3H7F,MISC,,62.087,0.7330,263.810,415.680,42.000,0.216,0.2040,-0.026462867,0.005381481,-3.12094E-06,6.99229E-10,0,-288.70,-204.22,-2.90E-01,2.80E-01,2.72E-08
420-46-2,111-F-C2,C2H3F3       ,HAL,CH3 CF3 ,84.04100037,0.9943,225.600,346.299,37.600,0.194,0.2510,0.0683913,0.0037399,-3.09213E-06,1.00194E-09,0,-746.08,-678.70,-7.47E+02,2.25E-01,1.00E-05
42205-08-3,123-EBenzene,C12H18       ,A,(ACCH2)3 (ACH)3 (CH3)3 ,162.2749939,0.8976,490.700,683.000,23.800,0.593,0.5054,-0.22839,0.0068892,-5.1843E-06,2.07092E-09,-3.54105E-13,-72.16,,-7.14E+01,7.20E-01,7.00E-05
4259-00-1,112-MCC5,C8H16        ,N,(CH3)3 (CH2)3 CH C ,112.2080002,0.7762,386.881,579.539,29.385,0.417,0.2520,-0.100688,0.005713,-2.10362E-06,0,0,-110.86,,-1.10E+02,7.52E-01,7.95E-05
4265-25-2,2MBenzoFuran,C9H8O        ,Misc,,132.1620026,1.0519,470.648,698.000,36.400,0.405,0.3742,-0.472075,0.00679584,-6.29016E-06,3.05233E-09,-6.05345E-13,-8.25,103.00,-8.18E+00,3.63E-01,3.16E-05
42841-80-5,PENTYL PROPYL SULFIDE,C8H18S,MISC,,146.29,0.8400,468.160,660.720,25.790,0.538,0.4650,0.099507827,0.00504744,-2.25149E-06,3.5565E-10,0,-166.57,48.24,-1.60E-01,6.62E-01,1.26E-07
4292-75-5,n-Hexylcyclohexane,C12H24,MISC,,168.322,0.8920,497.860,691.810,21.330,0.641,0.4560,-0.396020722,0.007589026,-4.40245E-06,9.45866E-10,0,-254.39,73.26,-2.62E-01,1.10E+00,7.41E-08
4292-92-6,Pent-CC6,C11H22       ,N,(CH2)9 CH CH3 ,154.3000031,0.8076,476.898,674.000,23.300,0.585,0.4130,-0.424368,0.00765326,-4.43154E-06,9.449E-10,3.76245E-21,-233.80,64.85,-2.41E+02,1.00E+00,6.80E-05
430-66-0,"1,1,2-triﬂuoroethane (R-143)",C2H3F3,MISC,,84.041,,276.850,429.800,52.410,0.179,0.3150,0.34931443,0.001627364,2.05176E-06,-4.17179E-09,1.84896E-12,-669.40,-609.40,,,
4308-04-04,3-ETHYL-1-PENTENE,C7H14,MISC,,98.188,0.6920,357.260,530.000,30.300,0.398,0.3020,0.02745753,0.00579745,-1.98487E-06,-6.37827E-10,3.81411E-13,-64.10,96.65,-6.74E-02,5.34E-01,4.93E-08
431-89-0,"1,1,1,2,3,3,3-heptaﬂuoropropane (R-227ea)",C3HF7,MISC,,170.03,,376.000,293.150,0.000,0.000,0.0000,6.698923719,0,0,0,0,121.40,295.00,,,
434-64-0,perF-Toluene,C7F8         ,Misc,AC (ACF)5 CF3 ,236.0610046,1.6029,377.700,534.500,27.100,0.428,0.4750,-0.0469088,0.00289292,-2.03427E-06,5.02116E-10,0,-1586.26,,,3.45E-01,9.37E-06
4351-54-6,CC6_Formate,C7H12O2      ,Misc,CH (CH2)5 HCOO ,128.1710052,1.0012,435.650,645.000,35.200,0.384,0.3679,-0.67204,0.0079188,-6.6807E-06,2.97892E-09,-5.565E-13,-448.30,,-4.50E+02,6.09E-01,4.33E-05
4390-04-9,2244688-C10,C16H34       ,PN,(CH3)9 (CH2)3 CH (C)3 ,226.4459991,0.7885,519.500,692.000,15.700,0.863,0.5482,-0.49232,0.0090808,-7.4178E-06,3.22756E-09,-5.854E-13,-413.20,,-4.14E+02,1.60E+00,1.17E-04
4445-07-2,n-C8C10==BZ,C24H42       ,MISC,(CH2)16 CH3 (ACH)5 ACCH2 ,330.5969849,0.8604,673.150,834.000,11.600,1.250,0.9505,-0.080695,0.0062636,-3.0807E-06,5.46E-11,2.54965E-13,-302.50,,-3.02E+02,1.84E+00,1.59E-04
4454-05-1,MoxyDiHpyran,C6H10O2      ,Misc,CH3O CH-O CH=CH (CH2)2 ,114.1439972,1.0060,400.750,599.000,39.300,0.331,0.3669,-0.74533,0.0078566,-0.000006885,3.06908E-09,-5.5315E-13,-281.40,,-2.82E+02,8.39E-01,4.54E-05
4457-00-5,n-Hex-CC5,C11H22       ,N,CH3 (CH2)9 CH ,154.2960052,0.8008,476.299,660.098,21.300,0.641,0.4760,-0.377969,0.00731056,-4.23594E-06,9.5464E-10,1.38414E-20,-209.50,,-2.09E+02,9.36E-01,9.46E-05
4516-69-2,113-MCC5,C8H16        ,N,(CH3)3 (CH2)3 CH C ,112.2080002,0.7518,378.044,569.539,28.268,0.417,0.2110,-0.0223048,0.005697,-2.0816E-06,0,0,-110.86,,-1.10E+02,7.56E-01,7.19E-05
4553-62-2,MGlutNitrile,C6H8N2       ,Misc,,108.1389999,0.9599,536.150,742.000,28.800,0.404,0.6381,0.304185,0.00399152,-2.06789E-06,3.14337E-10,4.28649E-14,142.00,249.00,1.42E+02,3.49E-01,2.89E-05
460-12-8,Biacetylene,C4H2         ,MISC,(CH-=C)2 ,50.06000137,0.7179,283.500,476.997,58.600,0.184,0.1000,0.486754,0.0044996,-4.51638E-06,1.75742E-09,-1.1826E-22,472.78,443.96,4.74E+02,-9.93E-02,-6.60E-07
460-13-9,1-FLUOROPROPANE,C3H7F,MISC,,62.087,0.7870,269.950,422.000,41.570,0.222,0.2270,0.119574146,0.004680207,-2.18226E-06,3.03155E-10,0,-281.16,-200.29,-2.83E-01,2.68E-01,2.81E-08
460-19-5,Cyanogen,C2N2         ,MISC,,52.03490067,0.8683,250.998,400.000,59.700,0.148,0.2780,0.690687,0.00177822,-1.56586E-06,5.66912E-10,-2.022E-21,309.10,297.19,3.09E+02,-3.94E-02,-4.02E-06
461-58-5,DiCy-DiAmide,C2H4N4       ,Misc,,84.08070374,0.8656,581.000,834.000,53.400,0.329,0.6924,0.15935,0.003897,-2.7741E-06,9.4404E-10,-1.2083E-13,119.00,,-3.28E+01,-3.28E+01,-3.28E+01
462-06-6,Fluoro-BZ,C6H5F        ,Misc,(ACH)5 ACF ,96.10350037,1.0311,357.898,560.098,45.500,0.269,0.2440,-0.403259,0.0059027,-4.61682E-06,1.41085E-09,0,-116.59,-69.04,-1.18E+02,1.58E-01,1.80E-05
462-95-3,Ethylal,C5H12O2      ,Misc,CH2 (CH3)2 (CH2O)2 ,104.1490021,0.8358,360.650,524.000,32.800,0.349,0.4297,-0.65323,0.0085242,-8.3445E-06,4.486E-09,-1.01265E-12,-414.80,,-4.15E+02,5.83E-01,5.51E-05
463-40-1,LinolencAcid,C18H30O2     ,Misc,(CH2)10 CH3 (CH=CH)3 COOH ,278.4330139,0.9197,632.000,780.000,14.400,1.070,1.1855,-0.326876,0.00711688,-5.7735E-06,2.55393E-09,-4.75419E-13,-405.00,,-4.04E+02,1.31E+00,1.21E-04
463-49-0,Propadiene,C3H4         ,OD,,40.06480026,0.6562,238.699,393.148,54.715,0.162,0.1596,0.537,0.00331,-5.47485E-08,-1.33198E-09,4.83193E-13,192.29,201.30,1.92E+02,3.08E-02,1.42E-05
463-51-4,Ketene,C2H2O        ,Misc,,42.03770065,0.6795,231.998,370.000,65.000,0.145,0.2100,0.151968,0.003899,-2.58027E-06,6.42204E-10,0,-61.13,-60.29,-6.10E+01,2.02E-04,6.77E-06
463-56-9,HSCN,HSCN         ,Misc,,59.08990097,1.8525,600.000,925.000,64.000,0.177,1.9160,0.0697028,0.00363374,-4.31481E-06,2.56981E-09,-6.0327E-13,-735.20,,-7.36E+02,2.75E-01,1.05E-06
463-58-1,COS,COS          ,MISC,,60.06990051,1.0163,223.000,378.799,61.798,0.142,0.1041,0.32,0.001723676,-1.98125E-06,1.13234E-09,-2.51813E-13,-138.50,-165.64,-1.36E+02,-1.06E-01,2.52E-05
463-82-1,22-Mpropane,C5H12        ,PN,(CH3)4 C ,72.15100098,0.5961,282.648,433.778,31.988,0.303,0.1964,-0.021985,0.006571,-2.61341E-06,-3.62942E-10,3.64613E-13,-166.09,-15.24,-1.69E+02,5.03E-01,3.96E-05
464-06-2,223-Mbutane,C7H16        ,PN,(CH3)5 CH C ,100.2050018,0.6939,354.026,531.169,29.536,0.398,0.2600,0.154798,0.005653,-2.02295E-06,0,0,-204.89,5.00,-2.09E+02,6.98E-01,5.26E-05
4654-26-6,DinC8Tereate,C24H38O4     ,Misc,(CH2)14 (CH3)2 (AC)2 (ACH)4 (COO)2 ,390.5629883,0.9904,698.000,855.000,11.600,1.440,1.0895,-0.35342,0.0065764,-0.000004728,1.49636E-09,-8.951E-14,-981.40,,-9.81E+02,1.87E+00,1.68E-04
4669-01-06,1-CYCLOPENTYLPENTADECANE,C20H40,MISC,,280.536,0.8180,625.000,780.000,10.200,1.097,0.8330,-0.283746115,0.00733667,-4.54451E-06,1.15286E-09,0,-395.01,153.89,-4.06E-01,1.83E+00,1.22E-07
4669-01-6,n-Pentadecylcyclopentane,,MISC,,280.53,,,,,,,FALSE,FALSE,FALSE,FALSE,FALSE,,,,,
4753-80-4,ThiaCC7,C6H12S       ,MISC,,116.2200012,0.9833,446.700,640.098,43.700,0.391,0.2910,-0.606935,0.006263,-2.07579E-06,-4.2328E-10,5.999E-21,-61.32,84.06,-5.82E+01,4.50E-01,9.07E-05
4773-83-5,123MIndene,C12H14       ,MISC,(CH3)3 (ACH)4 (AC)2 CH C=C ,158.2400055,1.0166,507.000,727.000,31.500,0.499,0.4834,-0.52886,0.00781938,-6.94857E-06,2.52712E-09,8.48295E-20,51.70,221.00,5.26E+01,8.74E-01,5.74E-05
479-45-8,Tetryl,C7H5N5O8     ,Misc,,287.1440125,1.0663,528.150,673.000,26.100,0.665,1.2737,0.0292587,0.00321304,-1.20481E-06,-1.12394E-09,7.75735E-13,26.30,,-3.28E+01,-3.28E+01,-3.28E+01
4850-28-6,1ci2tr4-MCC5,C8H16        ,N,(CH3)3 (CH2)2 (CH)3 ,112.2080002,0.7674,389.889,579.260,28.779,0.416,0.2460,-0.055638,0.00570718,-2.09579E-06,0,0,-112.67,,-1.12E+02,7.34E-01,7.51E-05
4850-32-2,sec-BCC5,C9H18        ,N,(CH3)2 (CH2)5 (CH)2 ,126.2360001,0.7981,427.522,633.705,27.358,0.478,0.2667,-0.0866288,0.005727,-2.12231E-06,0,0,-128.03,,-1.27E+02,8.17E-01,8.77E-05
488-23-3,1234-M-BZ,C10H14       ,A,(ACH)2 (ACCH3)4 ,134.2200012,0.9094,478.299,695.098,28.300,0.488,0.3680,0.0361198,0.0054599,-3.03396E-06,6.3756E-10,4.16862E-21,-41.91,123.43,-4.45E+01,5.48E-01,4.76E-05
4894-62-6,3-M-15-C7==,C8H14        ,OD,(CH3)2 CH2 CH CH2=CH CH=CH ,110.1999969,0.7327,384.148,583.150,27.964,0.443,0.1861,0.0729158,0.005683,-2.0633E-06,0,0,28.92,,2.81E+01,5.04E-01,4.11E-05
493-01-6,c-Decalin,C10H18       ,N,(CH2)8 (CH)2 ,138.25,0.9020,468.600,702.200,32.000,0.477,0.2860,-0.793763,0.00799778,-4.65066E-06,9.81904E-10,5.7534E-21,-168.95,85.60,-1.76E+02,8.54E-01,6.91E-05
493-02-7,t-Decalin,C10H18       ,N,(CH2)8 (CH)2 ,138.25,0.8741,460.398,687.000,32.000,0.477,0.2700,-0.706176,0.0075515,-3.96036E-06,6.4994E-10,6.54105E-21,-182.30,74.20,-1.88E+02,8.57E-01,6.95E-05
496-11-7,Indane,C9H10        ,AU,(ACH)4 (AC)2 (CH2)3 ,118.1780014,0.8637,451.148,659.557,35.515,0.414,0.4287,-0.556084,0.0078407,-7.14816E-06,2.65446E-09,8.00335E-20,107.59,166.61,1.08E+02,4.19E-01,0.00E+00
4974-27-0,26-Octadiene,C8H14        ,OD,(CH3)2 (CH2)2 (CH=CH)2 ,110.1940002,0.7475,397.648,617.000,28.675,0.475,0.1235,0.0463809,0.0056938,-2.07749E-06,0,0,25.99,,2.53E+01,4.95E-01,4.36E-05
498-02-2,AcetVanillon,C9H10O3      ,Misc,(AC)2 (ACH)3 ACOH CH3CO CH3O ,166.177002,1.0759,570.650,786.000,36.500,0.467,0.7856,0.205234,0.00283294,2.59994E-06,-6.09284E-09,2.87051E-12,-418.00,,-4.18E+02,5.38E-01,3.38E-05
498-23-7,CitracoAcid,C5H6O4       ,Misc,CH3 CH=C (COOH)2 ,130.1000061,1.3818,607.000,828.999,42.400,0.340,0.9269,-0.411726,0.00803252,-1.14618E-05,8.50072E-09,-2.46521E-12,-740.00,-622.00,-7.41E+02,3.98E-01,5.73E-06
498-66-8,2Norbornene,C7H10        ,MISC,(CH2)3 (CH)2 CH=CH ,94.15640259,0.7878,368.648,583.000,39.300,0.337,0.1590,-0.782625,0.00791588,-5.15898E-06,1.39417E-09,-7.53075E-14,90.00,203.00,8.94E+01,3.69E-01,4.14E-05
50-00-0,Formaldehyde,CH2O         ,ALD,,30.0258007,0.7531,252.998,407.000,65.900,0.105,0.2530,0.78251,0.00105206,9.94785E-07,-7.66488E-10,0,-115.99,-109.91,-1.16E-01,1.66E-02,1.14E-08
501-65-5,DiPhenylC2#,C14H10       ,ADU,(AC)2 (ACH)10 C-=C ,178.2330017,0.9466,573.000,832.000,29.000,0.611,0.3836,-0.371087,0.00590634,-4.20735E-06,1.23158E-09,-7.9287E-14,430.12,509.78,4.31E+02,2.53E-01,4.10E-05
502-44-3,Caprolactone,C6H10O2      ,Misc,(CH2)5 COO ,114.1380005,1.1385,488.148,732.000,46.200,0.331,0.4183,-0.544279,0.006536,-4.04745E-06,9.12468E-10,0,-425.93,-267.84,-4.27E+02,7.28E-01,4.22E-05
502-56-7,diB-Ketone,C9H18O       ,Misc,(CH3)2 (CH2)5 CH2CO ,142.2420044,0.8278,461.600,640.000,23.200,0.580,0.5160,0.13497,0.00564564,-3.09696E-06,1.37645E-09,0,-341.67,,-3.43E+02,7.88E-01,4.94E-05
503-17-3,DMAcetylene,C4H6         ,OD,(CH3)2 C-=C ,54.09149933,0.6965,300.130,473.200,48.700,0.221,0.2385,0.810409,0.00138584,4.03188E-06,-4.60768E-09,1.42591E-12,145.70,185.43,1.47E+02,1.19E-01,2.94E-05
503-30-0,13C3=Oxide,C3H6O        ,Misc,(CH2)2 CH2O ,58.08000183,0.9062,321.000,520.000,57.500,0.188,0.2005,-0.586597,0.00715924,-6.44559E-06,3.58999E-09,-8.0425E-13,-75.06,-1.66,-7.47E+01,2.35E-01,3.45E-05
503-64-0,ci-CrotoAcid,C4H6O2       ,ES,CH3 CH=CH COOH ,86.0904007,1.0331,445.049,647.000,47.000,0.270,0.5723,0.216296,0.00427648,-2.65915E-06,6.56592E-10,0,-358.99,-279.00,-3.59E+02,2.57E-01,1.89E-05
503-74-2,i-C5oicAcid,C5H10O2      ,ACID,(CH3)2 CH2 CH COOH ,102.1340027,0.9351,449.700,632.000,38.700,0.346,0.6480,0.0753205,0.00509522,-3.02115E-06,6.79148E-10,0,-514.70,298.15,-5.15E+02,5.23E-01,3.99E-05
504-63-2,13-C3diol,C3H8O2       ,MISC,(CH2)3 (OH)2 ,76.09600067,1.0618,487.600,657.000,59.200,0.217,1.1665,0.10872,0.0048339,-2.84303E-06,6.64444E-10,0,-409.09,-277.18,-4.09E+02,3.56E-01,3.78E-05
505-22-6,13-Dioxane,C4H8O2       ,Misc,(CH2)2 (CH2O)2 ,88.10630035,1.0402,378.150,590.000,51.500,0.239,0.2891,-0.17614,0.0044304,-9.5436E-07,-9.8568E-10,4.35515E-13,-342.30,-203.90,-3.42E+02,4.34E-01,4.31E-05
505-48-6,Suberic_Acid,C8H14O4      ,Misc,(CH2)6 (COOH)2 ,174.1970062,1.2737,625.000,809.000,28.200,0.522,1.1471,0.1601,0.0046874,-3.1443E-06,1.03588E-09,-1.39965E-13,-894.90,,-8.95E+02,7.94E-01,4.92E-05
506-12-7,nC17oicAcid,C17H34O2     ,Misc,CH3 (CH2)15 COOH ,270.45401,0.8545,635.750,787.000,14.300,0.969,1.0663,-0.0665327,0.00653656,-4.48716E-06,1.63235E-09,-2.58126E-13,-743.00,,-7.43E+02,1.61E+00,1.27E-04
50623-57-9,nBC9oate,C13H26O2     ,Misc,(CH3)2 CH2COO (CH2)9 ,214.3480072,0.8594,503.000,652.000,17.400,0.794,0.8279,-0.315883,0.00776554,-6.97422E-06,3.56342E-09,-7.74685E-13,-627.40,-252.00,-6.27E+02,1.23E+00,9.84E-05
506-30-9,nC20oicAcid,C20H40O2     ,Misc,CH3 (CH2)18 COOH ,312.5360107,0.8422,670.150,821.000,12.400,1.130,1.0855,-0.0382762,0.006383,-4.03473E-06,1.28808E-09,-2.07704E-13,-812.40,,-8.12E+02,1.89E+00,1.49E-04
506-77-4,CyanogenCl,CClN         ,Misc,,61.47040176,1.1925,286.000,449.000,59.900,0.163,0.3221,0.329531,0.00210574,-3.23091E-06,2.40619E-09,-6.71295E-13,137.95,131.00,1.39E+02,-2.86E-02,9.40E-06
50-70-4,Sorbitol,C6H14O6      ,Misc,(CH2)2 (OH)6 (CH)4 ,182.1730042,1.4055,704.000,868.000,46.400,0.483,2.2130,-0.106449,0.00614706,-6.24042E-06,3.32676E-09,-6.9144E-13,-1139.99,-866.00,-1.14E+00,9.07E-01,4.84E-05
507-09-5,ThioAcetAcid,C2H4OS       ,Misc,,76.11000061,1.0705,360.200,577.299,69.200,0.220,0.3040,0.505385,0.00214262,-9.20406E-07,6.30916E-11,2.35053E-22,-181.95,-154.01,-1.79E+02,6.95E-02,4.62E-05