CAS Number,Name,Formula,Type,UNIFAC,MW,SG6060,TB,Tc,Pc,Vc,OMEGA,CPA,CPB,CPC,CPD,CPE,HFORM25,GFORM25,GIBBSA,GIBBSB,GIBBSC
1134-62-9,2BNaphthalen,C14H16       ,AMR,(AC)2 (ACH)7 ACCH2 (CH2)2 CH3 ,184.279007,0.9711,562.200,770.000,25.000,0.633,0.5330,-0.284712,0.00633004,-4.25916E-06,1.12138E-09,6.02385E-21,52.30,238.53,4.85E+01,6.20E-01,5.15E-05
115-07-1,Propene,C3H6         ,N,CH3 CH2=CH ,42.08060074,0.5214,225.399,365.000,46.204,0.181,0.1480,0.0881636,0.0055726,-2.75659E-06,5.23968E-10,-5.2489E-22,20.43,62.50,1.94E+01,1.37E-01,2.57E-05
115-10-6,diM-Ether,C2H6O        ,Misc,CH3 CH3O ,46.06900024,0.6709,248.300,400.000,53.200,0.178,0.2000,0.36968,0.00389018,-1.13687E-06,-4.16588E-11,0,-184.19,-112.92,-1.85E+02,2.34E-01,2.71E-05
115-11-7,i-Butene,C4H8         ,N,(CH3)2 CH2=C ,56.10770035,0.5933,266.299,417.898,40.023,0.239,0.1900,0.28605,0.0049975,-1.94446E-06,1.6215E-10,-5.4667E-22,-16.91,58.18,-1.83E+01,2.46E-01,3.09E-05
115-25-3,perF-CC4,C4F8         ,Misc,(CF2)4 ,200.026001,1.5350,267.200,388.500,27.800,0.324,0.3560,0.228438,0.00243962,-1.90766E-06,5.30888E-10,0,-1528.00,253.15,-1.53E+00,4.44E-01,-1.39E-05
115-77-5,Penterytrito,C5H12O4      ,Misc,C (CH2)4 (OH)4 ,136.1470032,0.8821,631.000,780.000,47.800,0.381,2.1728,0.0563204,0.00500114,-3.36882E-06,1.01237E-09,-9.85695E-14,-776.70,-542.65,-7.77E+02,7.71E-01,4.75E-05
115-86-6,TRIPHENYL PHOSPHATE ,C18H1504P,MISC,,326.288,0.0000,686.650,0.000,-,#VALUE!,0.0000,0,0,0,0,0,-757.30,0.00,,,
116-09-6,Acetol,C3H6O2       ,ES,CH2 OH CH3CO ,74.07920074,1.0834,418.648,596.000,57.400,0.228,0.7736,0.408187,0.00235804,1.63349E-06,-3.26944E-09,1.31028E-12,-366.00,,-3.65E+02,2.61E-01,3.11E-05
116-14-3,perF-C2=,C2F4         ,Misc,C=C (F)4 ,100.0130005,1.0321,197.199,306.500,39.200,0.172,0.2230,0.290239,0.00227806,-2.03691E-06,6.78112E-10,0,-658.98,-624.10,-6.59E+02,1.18E-01,-1.83E-06
116-15-4,C6-F-C3=,C3F6         ,Misc,,150.022995,1.3533,243.550,368.000,29.000,0.268,0.2046,0.090117,0.0042542,-0.000004926,2.689E-09,-5.646E-13,-1079.00,-1040.10,-1.08E+00,1.64E-01,-4.20E-05
117-81-7,DiC8Phthalat,C24H38O4     ,Misc,(CH)2 (CH2)10 (CH3)4 (AC)2 (ACH)4 (COO)2 ,390.5629883,0.9895,657.150,806.000,11.800,1.270,1.1420,-0.19712,0.0056934,-3.1071E-06,3.89972E-10,1.2481E-13,-966.72,-406.30,-9.66E+02,1.97E+00,1.68E-04
1184-58-3,DIMETHYLALUMINUM CHLORIDE ,C2H6AICI,MISC,,92.054,0.9880,399.150,619.000,36.200,0.320,0.1830,0.150672431,0.003424729,-2.60803E-06,1.07718E-09,-1.87151E-13,0.00,0.00,,,
1185-39-3,NeoC7oicAcid,C7H14O2      ,ES,C (CH2)2 (CH3)3 COOH ,130.1869965,0.9238,475.650,662.000,30.300,0.455,0.6354,-0.40293,0.0075328,-0.000006795,3.3908E-09,-7.157E-13,-545.30,,-5.45E+02,6.83E-01,5.66E-05
1186-53-4,2234Mpentane,C9H20        ,PN,(CH3)6 (CH)2 C ,128.2590027,0.7424,406.178,592.150,26.041,0.490,0.3130,0.0875829,0.00569,-2.07263E-06,0,0,-237.09,35.40,-2.43E+02,9.02E-01,6.24E-05
118-74-1,PerCl-BZ,C6Cl6        ,Misc,(ACCL)6 ,284.7990112,1.5578,582.598,825.799,32.200,0.558,0.5430,0.190936,0.001909686,-1.81035E-06,6.26252E-10,1.43266E-21,-82.42,44.18,-3.44E+01,2.69E-01,-1.87E-05
118-90-1,o-ToluicAcid,C8H8O2       ,Misc,(ACH)4 ACCH3 AC COOH ,136.1490021,1.1535,532.000,750.000,38.600,0.397,0.6572,0.033213,0.00244214,3.45834E-06,-6.34296E-09,2.70569E-12,-322.80,-213.35,-3.22E+02,3.50E-01,4.91E-05
118-91-2,o-ClBenzoicA,C7H5ClO2     ,Misc,AC (ACH)4 COOH ACCL ,156.5679932,1.5426,560.150,792.000,40.300,0.383,0.6637,0.016808,0.0023814,1.44291E-06,-3.95936E-09,1.8396E-12,-325.00,-240.53,-3.24E+02,2.67E-01,4.32E-05
118-93-4,2HxAcPhenone,C8H8O2       ,Misc,AC (ACH)4 ACOH CH3CO ,136.1499939,1.1350,494.700,707.000,44.500,0.394,0.6377,-0.1801,0.0060282,-5.4234E-06,2.39608E-09,-3.93475E-13,-281.00,,-2.81E+02,3.67E-01,2.04E-05
118-96-7,246-3NToluen,C7H5N3O6     ,Misc,(ACH)3 (ACNO2)3 ,227.1329956,1.5448,625.000,828.000,30.400,0.572,0.8972,0.56784,0.00103318,1.80522E-06,-2.34984E-09,7.268E-13,43.40,0.00,4.23E+01,8.08E-01,1.21E-05
1189-99-7,255-Mheptane,C10H22       ,PN,(CH3)5 (CH2)3 CH C ,142.2850037,0.7431,425.971,602.927,22.201,0.550,0.4346,0.129297,0.0056908,-2.07338E-06,0,0,-269.57,24.52,-2.75E+02,9.83E-01,6.88E-05
1190-76-7,cisCrotonitr,C4H5N        ,Misc,,67.0904007,0.8292,380.600,568.000,38.800,0.265,0.3787,-0.0110198,0.004724,-2.79641E-06,5.62E-10,2.75023E-14,143.40,185.50,1.44E+02,1.32E-01,2.48E-05
1190-83-6,226-Mheptane,C10H22       ,PN,(CH3)5 (CH2)3 CH C ,142.2850037,0.7271,422.100,593.427,21.304,0.573,0.4273,0.1825,0.005679,-2.05772E-06,0,0,-273.97,21.97,-2.80E+02,9.92E-01,6.78E-05
1191-25-9,6-HydroxyC6A,C6H12O3      ,Misc,COOH OH (CH2)5 ,132.1589966,0.9890,557.000,730.000,35.800,0.435,1.1776,-0.016278,0.0057344,-0.000004941,2.49136E-09,-5.686E-13,-666.20,,-6.66E+02,6.25E-01,4.71E-05
1191-99-7,23-DiHydroFu,C4H6O        ,Misc,CH2O CH=CH CH2 ,70.09100342,0.9301,327.650,524.000,55.000,0.205,0.2255,-0.24363,0.0053346,-2.8875E-06,4.1852E-10,8.66E-14,-72.25,,-7.21E+01,2.26E-01,3.01E-05
1192-18-3,1-ci2-MCC5,C7H14        ,N,(CH3)2 (CH2)3 (CH)2 ,98.18900299,0.7766,372.683,564.817,34.474,0.368,0.2690,-0.141999,0.00571358,-2.10398E-06,0,0,-129.59,45.73,-1.34E+02,5.85E-01,5.24E-05
119-36-8,M-Salicylate,C8H8O3       ,Misc,(AC)2 OH (ACH)4 CH3COO ,152.1490021,1.1840,493.648,700.000,40.700,0.410,0.6315,-0.432439,0.006093,-5.72706E-06,2.79858E-09,-5.48315E-13,-464.30,,-4.64E+02,4.13E-01,4.26E-05
119-61-9,BZ-Phenone,C13H10O      ,Misc,,182.2220001,1.0861,579.242,815.000,30.100,0.591,0.5450,-0.34965,0.005441,-3.50976E-06,8.30948E-10,0,59.00,175.00,-3.28E+01,-3.28E+01,-3.28E+01
119-64-2,1234THyNapht,C10H12       ,OC,(ACH)4 (AC)2 (CH2)4 ,132.2050018,0.9748,480.769,720.150,36.200,0.441,0.3277,-0.406106,0.0063984,-3.93114E-06,9.61728E-10,-3.11578E-14,26.61,167.10,2.68E+01,4.52E-01,5.15E-05
119-65-3,i-Quinoline,C9H7N        ,NI,(ACH)4 C5H3N ,129.1600037,1.0974,516.400,803.150,49.800,0.403,0.2885,-0.160095,0.0046425,-2.12009E-06,-1.99439E-10,2.76149E-13,208.40,279.70,2.09E+02,2.29E-01,3.00E-05
119-67-5,2-FormBZAcid,C8H6O3       ,Misc,COOH CH3CO (ACH)4 (AC)2 ,150.1340027,1.5049,561.000,772.000,38.300,0.372,0.8188,-0.10205,0.0037968,-8.199E-07,-1.41184E-09,7.022E-13,-429.40,,-4.30E+02,3.05E-01,2.33E-05
119-75-5,oNtrDiPHAmin,C12H10N2O2   ,Misc,,214.2230072,1.0973,616.000,835.000,28.700,0.623,0.7669,-0.110398,0.0046658,-2.91195E-06,5.36396E-10,8.0891E-14,188.00,,1.87E+02,6.22E-01,3.51E-05
1198-61-4,Cl2-F4-BZ,C6Cl2F4      ,Misc,(ACCL)2 (ACF)4 ,218.9640045,1.5676,430.898,626.000,53.200,0.400,0.6220,0.0679726,0.00208424,-1.35639E-06,3.13004E-10,0,-803.91,,-8.02E+02,2.01E-01,3.56E-05
11H6-2,2-BUTOXYETHANOL,C6H1402,MISC,,118.176,0.8960,444.470,600.000,32.400,0.400,0.8170,-0.188016179,0.006866284,-6.02847E-06,3.32953E-09,-8.74458E-13,-441.00,-240.00,-4.45E-01,6.70E-01,5.05E-08
120-12-7,Anthracene,C14H10       ,ADU,(AC)4 (ACH)10 ,178.2330017,1.0942,615.179,872.000,29.000,0.554,0.4892,-0.394334,0.00611442,-4.67079E-06,1.70834E-09,-2.35038E-13,230.10,333.70,2.30E+02,3.28E-01,3.83E-05
120-51-4,BzylBZoate,C14H12O2     ,Misc,AC (ACH)10 ACCH2 COO ,212.2480011,1.1161,596.650,819.999,25.800,0.694,0.6225,-0.592555,0.0062054,-4.30071E-06,8.2364E-10,2.31793E-13,-191.00,-34.80,-1.91E+02,5.04E-01,6.51E-05
120-61-6,DMTerephtlat,C10H10O4     ,Misc,(ACH)4 (AC)2 (CH3COO)2 ,194.1900024,1.1749,561.150,772.000,27.800,0.529,0.6371,-0.697972,0.0069852,-6.64167E-06,2.38954E-09,8.6552E-14,-643.58,-474.00,-6.43E+02,5.49E-01,6.28E-05
120-72-9,Indole,C8H7N        ,NI,,117.1500015,1.1100,526.159,790.000,43.000,0.431,0.3742,-0.408067,0.006075,-4.6773E-06,1.75201E-09,-2.52301E-13,156.60,237.30,1.57E+02,2.61E-01,3.07E-05
12075-68-2,EAlSesquiCl,C6H15Al2Cl3  ,Misc,,247.5050049,1.0972,482.148,747.000,69.600,0.428,0.4341,-0.00715702,0.00385868,-2.98348E-06,1.20798E-09,-2.07456E-13,-32.77,0.00,-3.28E+01,-3.28E+01,-3.28E+01
120-80-9,12BZdiol,C6H6O2       ,Misc,(AC)2 (ACH)4 (OH)2 ,110.1110001,1.1570,518.650,764.000,74.900,0.300,0.6937,-0.219238,0.00559424,-4.35822E-06,1.48873E-09,-1.57754E-13,-272.00,-187.00,-2.73E+02,2.82E-01,1.75E-05
120-82-1,124TriClBZ,C6H3Cl3      ,Misc,(ACH)3 (ACCL)3 ,181.4470062,1.4608,486.148,725.000,37.200,0.395,0.3581,0.0108722,0.00315114,-3.07368E-06,1.51018E-09,-2.97245E-13,-11.76,43.05,-9.78E+00,1.65E-01,4.13E-05
120-92-3,CC5one,C5H8O        ,Misc,(CH2)3 CH2CO ,84.11750031,0.9548,403.898,634.598,51.100,0.268,0.2640,-0.48315,0.0062513,-3.71625E-06,8.48164E-10,0,-192.79,36.35,-1.93E+02,5.24E-01,4.07E-05
120-94-5,nMPyrrolidin,C5H11N       ,Misc,(CH2)4 CH3N ,85.14910126,0.8155,352.299,550.000,42.000,0.298,0.2270,-0.67281,0.00763278,-4.67448E-06,1.09136E-09,0,-8.12,145.00,-8.31E+00,7.05E-01,5.34E-05
121-14-2,24-2NToluene,C7H6N2O4     ,Misc,CH3 AC (ACH)3 (ACNO2)2 ,182.1360016,1.3753,590.000,814.000,34.000,0.487,0.7126,-0.21155,0.004999,-4.4526E-06,1.96872E-09,-3.47885E-13,33.20,0.00,3.19E+01,6.18E-01,1.96E-05
121-17-5,4Cl3NitroBZ,C7H3ClF3NO2  ,Misc,(ACH)3 AC ACCL ACNO2 CF3 ,225.5540009,1.5203,495.730,686.000,27.400,0.490,0.6038,0.015073963,0.003273091,-2.54449E-06,7.32861E-10,0,-634.25,,-6.34E+02,4.83E-01,2.01E-05
121-32-4,EVanillin,C9H10O3      ,Misc,CH2O CH3 CHO (AC)2 (ACH)3 ACOH ,166.177002,1.1461,567.000,748.000,32.700,0.467,1.0728,-0.230326,0.005607,-4.13142E-06,1.59977E-09,-3.41896E-13,-404.00,-253.00,-4.05E+02,5.03E-01,2.74E-05
121-33-5,Vanillin,C8H8O3       ,Misc,(AC)2 (ACH)3 ACOH CHO CH3O ,152.1490021,1.1433,558.000,777.000,40.100,0.415,0.7573,-0.19151,0.0052706,-3.87069E-06,1.55202E-09,-3.68522E-13,-369.00,-247.00,-3.70E+02,4.07E-01,2.06E-05
121-44-8,triEthylamin,C6H15N       ,Misc,(CH3)3 (CH2)2 CH2N ,101.1930008,0.7336,362.500,535.000,30.300,0.389,0.3200,-0.18224,0.00707536,-4.34301E-06,1.07983E-09,0,-99.65,118.00,-1.04E+02,7.01E-01,5.10E-05
121-69-7,nn-diM-Anili,C8H11N       ,Misc,CH3 (ACH)5 AC CH3N ,121.1800003,0.9572,467.299,687.000,36.200,0.414,0.4110,-0.49821,0.006713,-4.32876E-06,1.00637E-09,0,84.15,247.73,8.39E+01,5.08E-01,4.82E-05
121-71-5,4-CHLORQ-3-NITROBENZOTRIFLUORIDE,C7H3CIF;!N02,MISC,,225.554,1.5060,495.150,686.000,27.400,0.490,0.6070,0.010915346,0.003588675,-3.55737E-06,1.7657E-09,-3.46259E-13,-634.25,-488.67,,,
121-73-3,mNitroClBZ,C6H4ClNO2    ,Misc,(ACH)4 ACCL ACNO2 ,157.5540009,1.3780,508.850,742.000,39.700,0.432,0.4919,0.00590398,0.00360898,-2.56995E-06,6.91364E-10,-2.1291E-14,37.20,13.70,3.71E+01,-8.54E-02,2.07E-05
121-75-5,Malathion,C10H19O6PS2  ,Misc,,330.3630066,1.2209,654.000,945.327,31.917,0.620,0.4387,-0.13139,0.0045862,-3.4482E-06,1.24832E-09,-1.75025E-13,-32.77,,-3.28E+01,-3.28E+01,-3.28E+01
121-91-5,i-PhthalAcid,C8H6O4       ,Misc,(ACH)4 (AC)2 (COOH)2 ,166.1320038,2.0020,1040.000,1390.000,39.500,0.424,1.0794,-0.32185,0.00433384,-2.77672E-06,6.3668E-10,0,-696.28,,-6.95E+02,4.11E-01,5.05E-05
122-32-7,Triolein,C57H104O6    ,Misc,(CH3)3 (CH2)41 CH (CH=CH)3 (CH2COO)3 ,885.4320679,0.9168,879.900,954.100,3.602,3.090,1.6862,0,0,0,0,0,-1844.00,,,6.39E+01,2.31E-04
122-39-4,DiPhnylAmine,C12H11N      ,Misc,,169.2250061,1.0604,575.150,817.000,31.800,0.539,0.5301,-0.735859,0.00789624,-7.57317E-06,3.77713E-09,-7.65155E-13,202.00,,2.02E+02,4.68E-01,4.39E-05
122-66-7,HyAzoBenzene,C12H12N2     ,Misc,,184.2400055,0.9914,573.000,792.000,30.900,0.556,0.6800,-0.659127,0.00766552,-7.5093E-06,3.8127E-09,-7.86835E-13,319.00,495.00,3.19E+02,5.76E-01,5.00E-05
123-01-3,n-Dodecyl-BZ,C18H30       ,A,(ACH)5 ACCH2 (CH2)10 CH3 ,246.4190063,0.8584,600.799,774.000,15.800,0.980,0.7730,-0.192257,0.00663428,-4.00347E-06,9.27208E-10,4.38116E-20,-178.50,211.79,-1.86E+02,1.30E+00,9.84E-05
123-02-4,n-TridecylBZ,C19H32       ,A,(ACH)5 ACCH2 (CH2)11 CH3 ,260.4500122,0.8573,614.400,784.000,15.000,1.040,0.8160,-0.185392,0.00664172,-3.99669E-06,9.2296E-10,5.09085E-20,-199.50,,-2.07E+02,1.40E-01,1.04E-04
123-05-7,2-E-C6al,C8H16O       ,Misc,(CH3)2 (CH2)4 CH CHO ,128.2140045,0.8266,433.799,607.000,25.800,0.491,0.5195,-0.123149,0.00623954,-3.66921E-06,8.4952E-10,0,-299.59,-91.49,-2.99E+02,6.96E-01,6.76E-05
123-07-9,p-E-Phenol,C8H10O       ,Misc,CH3 (ACH)4 ACCH2 ACOH ,122.1660004,0.9916,491.100,716.400,40.500,0.400,0.5240,0.0157192,0.00502864,-2.99275E-06,6.65484E-10,0,-144.50,-21.43,-1.44E+02,3.84E-01,4.03E-05
123-08-0,pHydroxyBZal,C7H6O2       ,Misc,(ACH)4 AC ACOH CHO ,122.1230011,1.1405,583.150,844.000,49.900,0.361,0.6172,-0.12016,0.00493644,-2.88617E-06,3.75552E-10,1.1203E-13,-213.00,-139.00,-2.14E+02,2.49E-01,9.84E-06
123-19-3,4Heptanone,C7H14O       ,Misc,CH2CO (CH3)2 (CH2)3 ,114.1880035,0.8214,417.148,595.000,29.200,0.421,0.4661,0.502131,0.00341822,1.01567E-06,-2.6526E-09,9.323E-13,-301.10,,-3.00E+02,5.85E-01,5.67E-05
123-25-1,DiESuccinate,C8H14O4      ,Misc,(CH2)2 (CH3)2 CH2COO ,174.1970062,1.0456,489.648,666.000,25.300,0.522,0.6772,-0.356968,0.00746162,-8.35158E-06,5.05532E-09,-1.22765E-12,-851.00,-618.00,-8.51E+02,7.67E-01,5.02E-05
123-31-9,Hydroquinone,C6H6O2       ,Misc,(ACOH)2 (ACH)4 ,110.1110001,0.9866,558.150,822.000,74.500,0.300,0.6861,-0.2353,0.006171,-6.24345E-06,3.33228E-09,-7.25965E-13,-261.60,-176.13,-2.62E+02,2.43E-01,1.89E-05
123-38-6,Propanal,C3H6O        ,ALD,CH3 CH2 CHO ,58.08000183,0.8086,321.000,496.000,47.600,0.223,0.3130,0.201917,0.00450364,-2.23976E-06,3.66276E-10,0,-192.19,-130.46,-1.93E+02,2.03E-01,2.34E-05
123-39-7,n-M-Formamid,C2H5NO       ,MISC,MFA ,59.06800079,1.0079,472.660,720.000,56.200,0.215,0.4100,0.725717,-0.001644728,1.21428E-05,-1.45E-08,5.5118E-12,-184.42,-108.23,-1.84E+02,2.56E-01,0.00E+00
123-42-2,diAcetone-ol,C6H12O2      ,ACID,(CH3)2 CH2 C OH CH3CO ,116.1600037,0.9432,441.000,606.000,36.000,0.387,0.7565,0.0914648,0.00522438,-3.55683E-06,1.57493E-09,-4.32481E-13,-440.73,-371.00,-4.40E+02,5.79E-01,5.01E-05
123-51-3,3-M-1-C4ol,C5H12O       ,OL,(CH3)2 (CH2)2 CH OH ,88.15000153,0.8214,405.200,579.400,39.200,0.330,0.5558,-0.1082,0.006449,-3.95601E-06,9.81904E-10,0,-302.29,44.10,-3.02E+02,5.00E-01,5.19E-05
123-54-6,Acetyl-one,C5H8O2       ,Misc,CH2 (CH3CO)2 ,100.1110001,0.9803,413.549,602.000,39.600,0.323,0.4959,0.0605535,0.00423838,-2.08615E-06,3.43232E-10,0,-379.99,-275.00,-3.79E+02,3.66E-01,4.01E-05
123-62-6,C3Anhydride,C6H10O3      ,Misc,(CH3)2 CH2CO CH2COO ,130.1430054,1.0168,440.148,623.000,32.700,0.396,0.5599,-0.143667,0.00560688,-4.65654E-06,2.16092E-09,-4.45696E-13,-626.50,-470.00,-6.26E+02,5.12E-01,4.27E-05
123-63-7,Paraldehyde,C6H12O3      ,Misc,(CH3)3 (CH-O)3 ,132.1580048,0.9965,397.250,577.000,35.000,0.365,0.4405,-0.92486,0.00885002,-7.74156E-06,2.51608E-09,0,-645.28,-410.38,-6.46E+02,1.42E+00,4.85E-05
123-72-8,n-Butanal,C4H8O        ,ALD,CH3 (CH2)2 CHO ,72.10700226,0.8083,348.000,545.400,53.700,0.278,0.2963,0.19539,0.00479738,-2.39099E-06,4.00624E-10,0,-205.19,-114.77,-2.07E+02,2.99E-01,2.94E-05
123-73-9,tr-Crotonal,C4H6O        ,ALD,CH3 CH=CH CHO ,70.09100342,0.8580,377.250,571.000,42.500,0.250,0.3455,0.15577,0.00466,-2.02221E-06,2.96541E-10,0,-103.59,-48.70,-1.04E+02,2.24E-01,1.31E-05
123-75-1,Pyrrolidine,C4H9N        ,Misc,(CH2)3 CH2NH ,71.1230011,0.8692,359.600,568.598,56.100,0.249,0.2740,-0.724728,0.00751028,-4.55841E-06,1.05913E-09,0,-3.60,114.68,-6.98E+00,3.95E-01,3.95E-05
123-76-2,LevulinicAcd,C5H8O3       ,Misc,(CH2)2 CH3CO COOH ,116.1169968,1.1401,530.000,738.000,40.200,0.343,0.7557,0.33462,0.0035214,-1.76013E-06,3.07512E-10,-3.02225E-14,-607.00,-478.00,-6.07E+02,4.22E-01,3.16E-05
123-86-4,n-B-Acetate,C6H12O2      ,ACID,CH3 (CH2)3 CH3COO ,116.1600037,0.8867,399.299,577.000,31.300,0.413,0.4148,0.117317,0.00472848,-1.9623E-06,6.81396E-12,0,-486.79,-312.10,-4.87E+02,5.75E-01,4.90E-05
123-91-1,14-Dioxane,C4H8O2       ,MISC,(CH2)2 (CH2O)2 ,88.10600281,1.0399,374.470,587.000,52.081,0.238,0.2804,-0.731588,0.0075208,-6.14952E-06,2.53512E-09,-4.1714E-13,-315.10,-180.20,-3.19E+02,4.52E-01,3.09E-05
123-92-2,iPentylAceta,C7H14O2      ,ES,(CH3)2 (CH2)2 CH CH3COO ,130.1860046,0.8762,415.700,597.000,28.300,0.460,0.4050,-0.455203,0.00795762,-7.76622E-06,4.2506E-09,-9.85135E-13,-511.80,-306.80,-5.12E+02,6.66E-01,5.60E-05
123-95-5,n-C4Stearate,C22H44O2     ,MISC,(CH2)18 (CH3)2 CH2COO ,340.5899963,0.8625,623.150,764.000,11.100,1.230,1.0246,-0.25718,0.007609,-6.2592E-06,2.90844E-09,-5.834E-13,-818.60,-187.38,-8.18E+02,2.07E+00,1.64E-04
123-96-6,2-Octanol,C8H18O       ,Misc,(CH3)2 (CH2)5 CH OH ,130.2310028,0.8250,451.997,637.000,28.600,0.490,0.5056,0.19885,0.00587114,-3.24561E-06,6.96432E-10,0,-376.00,-135.00,-3.76E+02,8.29E-01,6.35E-05
123-99-9,AzelaicAcid,C9H16O4      ,Misc,(CH2)7 (COOH)2 ,188.2230072,1.0474,633.359,811.000,25.600,0.610,1.1719,-0.127532,0.00664278,-7.41225E-06,5.1694E-09,-1.59302E-12,-927.00,-657.00,-9.27E+02,8.89E-01,5.65E-05
124-02-7,DiAllylAmine,C6H11N       ,Misc,CH2 (CH2=CH)2 CH2NH ,97.16010284,0.7931,384.148,556.000,33.200,0.392,0.4483,-0.104616,0.00629184,-4.40091E-06,1.54689E-09,-2.00471E-13,133.50,,1.34E+02,4.17E-01,4.51E-05
124-04-9,AdipicAcid,C6H10O4      ,Misc,(CH2)4 (COOH)2 ,146.1430054,1.0921,611.000,809.000,35.200,0.400,1.0507,0.0900873,0.0044071,-2.75574E-06,6.28792E-10,0,-865.02,-686.47,-8.65E+02,5.82E-01,3.90E-05
124-07-02,octanoic acid,C8H16O2,MISC,,112.215,,512.010,695.000,26.400,0.001,0.0000,0,0,0,0,0,21.36,0.00,,,
124-07-2,n-C8oicAcid,C8H16O2      ,Misc,(CH2)6 CH3 COOH ,144.2140045,0.9121,512.850,694.260,27.790,0.499,0.7706,-0.15457,0.0069662,-6.6339E-06,4.0524E-09,-1.1593E-12,-556.00,-325.00,-5.56E+02,7.55E-01,6.16E-05
124-09-4,HxC1=diAmine,C6H16N2      ,Misc,(CH2)4 (CH2NH2)2 ,116.2070007,0.7016,475.039,662.000,32.700,0.475,0.6501,0.1865,0.00540098,-2.39237E-06,2.29368E-10,0,-98.83,138.51,-9.87E+01,7.57E-01,6.35E-05
124-10-7,M-Myristate,C15H30O2     ,Misc,CH3 (CH2)12 CH3COO ,242.401001,0.8508,570.119,739.000,18.500,0.740,0.8440,0.0604866,0.005668463,-2.87788E-06,4.54619E-10,0,-670.21,,-6.70E+02,1.42E+00,1.15E-04
124-11-8,1-Nonene,C9H18        ,N,CH3 (CH2)6 CH2=CH ,126.2360001,0.7327,420.039,592.039,23.441,0.583,0.4300,0.15659,0.005683,-2.0633E-06,0,0,-103.59,111.80,-1.08E+02,7.18E-01,6.14E-05
124-12-9,CapryloNitri,C8H15N       ,Misc,,153.2680054,0.8208,516.000,688.598,26.800,0.594,0.8570,0.23355,0.00543914,-2.783E-06,7.29492E-10,0,-32.77,,-3.28E+01,-3.28E+01,-3.28E+01
124-13-0,n-Octanal,C8H16O       ,Misc,CHO (CH2)6 CH3 ,128.2100067,0.8256,444.898,621.098,27.300,0.501,0.5480,0.0824038,0.0056326,-2.97932E-06,5.5966E-10,-9.03345E-22,-289.65,,-2.93E+02,6.87E-01,5.33E-05
124-17-4,DEGC4C2rAc,C10H20O4     ,Misc,(CH2)5 CH3 CH3COO (CH2O)2 ,204.2660065,0.9846,518.450,679.000,20.600,0.682,0.8420,-0.4404,0.0079382,-8.4711E-06,5.142E-09,-1.31115E-12,-816.50,,-8.17E+02,1.06E+00,7.70E-05
124-18-5,n-Decane,C10H22       ,PN,(CH3)2 (CH2)8 ,142.2850037,0.7334,447.299,617.598,21.076,0.602,0.4885,-0.0556135,0.0067533,-3.71646E-06,7.94864E-10,-1.8507E-22,-249.79,33.30,-2.55E+02,9.42E-01,7.43E-05
124-19-6,n-Nonanal,C9H18O       ,Misc,CH3 (CH2)7 CHO ,142.2400055,0.8260,468.148,640.000,23.300,0.527,0.5920,0.29595,0.00488814,-1.99998E-06,1.875E-10,0,-305.25,-74.94,-3.15E+02,7.84E-01,5.94E-05
124-22-1,nC12Amine,C12H27N      ,Misc,(CH2)10 CH3 CH2NH2 ,185.352005,0.7891,532.348,696.000,18.800,0.735,0.7690,-0.121103,0.0071635,-5.05479E-06,2.00112E-09,-3.5271E-13,-256.00,116.49,-2.55E+02,1.22E+00,1.06E-04
124-38-9,CO2,CO2          ,Misc,,44.00970078,0.8261,194.598,304.100,73.700,0.094,0.2389,0.618139,0.00096897,-4.48059E-07,9.162E-11,-6.85225E-15,-393.79,-394.38,-3.93E+02,-3.46E-03,1.02E-06
124-40-3,diMethylamin,C2H7N        ,AMINE,CH3 CH3NH ,45.08480072,0.6616,270.000,437.700,53.100,0.182,0.3020,-0.00381755,0.0059815,-2.94967E-06,5.19112E-10,0,-18.80,68.80,-2.08E+01,2.89E-01,2.77E-05
124-68-5,AMP,C4H11NO      ,Misc,(CH3)2 C CH2 OH NH2 ,89.13990021,0.9330,438.148,619.111,48.630,0.296,0.7442,-0.150767,0.00679336,-4.92948E-06,1.44833E-09,0,-253.08,,-2.53E+02,5.53E-01,4.24E-05
124-73-2,12-Br-F4-C2,C2Br2F4      ,Misc,(Br)2 (CF2)2 ,259.8210144,2.1770,320.398,487.799,33.700,0.341,0.2450,0.254209,0.001058506,-9.61488E-07,3.13791E-10,0,-766.18,-868.86,-7.67E+02,-3.50E-02,-1.47E-05
126-30-7,NeoC5Glycol,C5H12O2      ,Misc,(CH3)2 (CH2)2 C (OH)2 ,104.1490021,0.8009,483.000,643.000,42.400,0.345,1.1431,-0.13176,0.00645654,-4.87164E-06,1.97667E-09,-3.6759E-13,-447.00,-264.00,-4.47E+02,6.00E-01,4.74E-05